<?xml version="1.0" encoding="UTF-8"?>

<!-- generated on 2025-03-21 17:48:38 by Eclipse SUMO sumo Version 1.21.0
<sumoConfiguration xmlns:xsi="http://www.w3.org/2001/XMLSchema-instance" xsi:noNamespaceSchemaLocation="http://sumo.dlr.de/xsd/sumoConfiguration.xsd">

    <input>
        <net-file value="${STATICPATH}/joined_lanes.net.xml"/>
        <route-files value="${SIMULATIONPATH}/generatedRoutes.rou.xml"/>
        <additional-files value="${STATICPATH}/detectors.add.xml,${STATICPATH}/joined_vtypes.add.xml,${STATICPATH}/joined_tls.add.xml"/>
    </input>

    <output>
        <fcd-output value="${SIMULATIONPATH}/fcd.xml"/>
        <queue-output value="${SIMULATIONPATH}/queue.xml"/>
        <summary-output value="${SIMULATIONPATH}/summary.xml"/>
        <tripinfo-output value="${SIMULATIONPATH}/tripinfos.xml"/>
        <vehroute-output value="${SIMULATIONPATH}/vehroute.xml"/>
        <save-state.prefix value="configs\state"/>
    </output>

    <processing>
        <ignore-junction-blocker value="1"/>
        <ignore-route-errors value="true"/>
        <time-to-teleport value="-1"/>
    </processing>

    <report>
        <log value="C:/Users/fabio/Desktop/sumo_log.txt"/>
        <no-step-log value="true"/>
    </report>

    <emissions>
        <phemlight-path value="configs\./PHEMlight/"/>
    </emissions>

    <traci_server>
        <remote-port value="60203"/>
    </traci_server>

</sumoConfiguration>
-->

<tripinfos xmlns:xsi="http://www.w3.org/2001/XMLSchema-instance" xsi:noNamespaceSchemaLocation="http://sumo.dlr.de/xsd/tripinfo_file.xsd">
    <tripinfo id="0" depart="40.00" departLane="a37_0" departPos="5.10" departSpeed="0.00" departDelay="0.29" arrival="330.00" arrivalLane="b4[1][1][1]_0" arrivalPos="171.54" arrivalSpeed="14.10" duration="290.00" routeLength="3011.93" waitingTime="32.00" waitingCount="4" stopTime="0.00" timeLoss="81.36" rerouteNo="0" devices="vehroute_0 tripinfo_0 fcd_0" vType="DEFAULT_VEHTYPE" speedFactor="1.06" vaporized=""/>
    <tripinfo id="3" depart="70.00" departLane="a37_0" departPos="5.10" departSpeed="0.00" departDelay="0.91" arrival="338.00" arrivalLane="b4[1][1][1]_0" arrivalPos="171.54" arrivalSpeed="14.42" duration="268.00" routeLength="3011.93" waitingTime="14.00" waitingCount="1" stopTime="0.00" timeLoss="62.67" rerouteNo="0" devices="vehroute_3 tripinfo_3 fcd_3" vType="DEFAULT_VEHTYPE" speedFactor="1.08" vaporized=""/>
    <tripinfo id="1" depart="44.00" departLane="a37_0" departPos="5.10" departSpeed="0.00" departDelay="0.41" arrival="400.00" arrivalLane="b4[1][1][1]_0" arrivalPos="171.54" arrivalSpeed="12.91" duration="356.00" routeLength="3011.93" waitingTime="68.00" waitingCount="3" stopTime="0.00" timeLoss="119.23" rerouteNo="0" devices="vehroute_1 tripinfo_1 fcd_1" vType="DEFAULT_VEHTYPE" speedFactor="0.94" vaporized=""/>
    <tripinfo id="6" depart="151.00" departLane="a210_0" departPos="5.10" departSpeed="0.00" departDelay="0.98" arrival="402.00" arrivalLane="b4[1][1][1]_0" arrivalPos="171.54" arrivalSpeed="14.36" duration="251.00" routeLength="2767.14" waitingTime="30.00" waitingCount="3" stopTime="0.00" timeLoss="59.50" rerouteNo="0" devices="vehroute_6 tripinfo_6 fcd_6" vType="DEFAULT_VEHTYPE" speedFactor="1.05" vaporized=""/>
    <tripinfo id="2" depart="44.00" departLane="a210_0" departPos="5.10" departSpeed="0.00" departDelay="0.37" arrival="405.00" arrivalLane="b4[1][1][1]_0" arrivalPos="171.54" arrivalSpeed="13.79" duration="361.00" routeLength="2767.14" waitingTime="119.00" waitingCount="5" stopTime="0.00" timeLoss="162.02" rerouteNo="0" devices="vehroute_2 tripinfo_2 fcd_2" vType="DEFAULT_VEHTYPE" speedFactor="1.01" vaporized=""/>
    <tripinfo id="4" depart="76.00" departLane="a210_0" departPos="5.10" departSpeed="0.00" departDelay="0.60" arrival="409.00" arrivalLane="b11[0]_0" arrivalPos="90.93" arrivalSpeed="13.64" duration="333.00" routeLength="2879.67" waitingTime="91.00" waitingCount="3" stopTime="0.00" timeLoss="128.12" rerouteNo="0" devices="vehroute_4 tripinfo_4 fcd_4" vType="DEFAULT_VEHTYPE" speedFactor="1.03" vaporized=""/>
    <tripinfo id="5" depart="139.00" departLane="a37_0" departPos="5.10" departSpeed="0.00" departDelay="0.67" arrival="529.00" arrivalLane="b4[1][1][1]_0" arrivalPos="171.54" arrivalSpeed="10.25" duration="390.00" routeLength="3011.93" waitingTime="70.00" waitingCount="4" stopTime="0.00" timeLoss="122.55" rerouteNo="0" devices="vehroute_5 tripinfo_5 fcd_5" vType="DEFAULT_VEHTYPE" speedFactor="0.83" vaporized=""/>
    <tripinfo id="10" depart="260.00" departLane="a210_0" departPos="5.10" departSpeed="0.00" departDelay="0.50" arrival="531.00" arrivalLane="b4[1][1][1]_0" arrivalPos="171.54" arrivalSpeed="14.94" duration="271.00" routeLength="2767.14" waitingTime="60.00" waitingCount="2" stopTime="0.00" timeLoss="86.84" rerouteNo="0" devices="vehroute_10 tripinfo_10 fcd_10" vType="DEFAULT_VEHTYPE" speedFactor="1.09" vaporized=""/>
    <tripinfo id="7" depart="225.00" departLane="a210_0" departPos="5.10" departSpeed="0.00" departDelay="0.75" arrival="548.00" arrivalLane="b4[1][1][1]_0" arrivalPos="171.54" arrivalSpeed="11.95" duration="323.00" routeLength="2764.18" waitingTime="67.00" waitingCount="2" stopTime="0.00" timeLoss="97.13" rerouteNo="0" devices="vehroute_7 tripinfo_7 fcd_7" vType="DEFAULT_VEHTYPE" speedFactor="0.89" vaporized=""/>
    <tripinfo id="9" depart="257.00" departLane="a210_0" departPos="5.10" departSpeed="0.00" departDelay="0.48" arrival="558.00" arrivalLane="b4[1][1][1]_0" arrivalPos="171.54" arrivalSpeed="11.40" duration="301.00" routeLength="2767.14" waitingTime="44.00" waitingCount="1" stopTime="0.00" timeLoss="66.44" rerouteNo="0" devices="vehroute_9 tripinfo_9 fcd_9" vType="DEFAULT_VEHTYPE" speedFactor="0.86" vaporized=""/>
    <tripinfo id="14" depart="355.00" departLane="a161_0" departPos="5.10" departSpeed="0.00" departDelay="0.78" arrival="625.00" arrivalLane="b2[1][1][1]b_0" arrivalPos="325.74" arrivalSpeed="13.69" duration="270.00" routeLength="2873.23" waitingTime="25.00" waitingCount="3" stopTime="0.00" timeLoss="58.74" rerouteNo="0" devices="vehroute_14 tripinfo_14 fcd_14" vType="DEFAULT_VEHTYPE" speedFactor="0.99" vaporized=""/>
    <tripinfo id="8" depart="240.00" departLane="a37_0" departPos="5.10" departSpeed="0.00" departDelay="0.05" arrival="653.00" arrivalLane="b4[1][1][1]_0" arrivalPos="171.54" arrivalSpeed="12.98" duration="413.00" routeLength="3011.93" waitingTime="121.00" waitingCount="6" stopTime="0.00" timeLoss="176.69" rerouteNo="0" devices="vehroute_8 tripinfo_8 fcd_8" vType="DEFAULT_VEHTYPE" speedFactor="0.94" vaporized=""/>
    <tripinfo id="13" depart="354.00" departLane="a210_0" departPos="5.10" departSpeed="0.00" departDelay="0.90" arrival="661.00" arrivalLane="b11[0]_0" arrivalPos="90.93" arrivalSpeed="14.87" duration="307.00" routeLength="2879.67" waitingTime="67.00" waitingCount="5" stopTime="0.00" timeLoss="118.34" rerouteNo="0" devices="vehroute_13 tripinfo_13 fcd_13" vType="DEFAULT_VEHTYPE" speedFactor="1.12" vaporized=""/>
    <tripinfo id="11" depart="296.00" departLane="a37_0" departPos="5.10" departSpeed="0.00" departDelay="0.18" arrival="682.00" arrivalLane="b4[1][1][1]_0" arrivalPos="171.54" arrivalSpeed="13.15" duration="386.00" routeLength="3011.93" waitingTime="115.00" waitingCount="4" stopTime="0.00" timeLoss="170.10" rerouteNo="0" devices="vehroute_11 tripinfo_11 fcd_11" vType="DEFAULT_VEHTYPE" speedFactor="1.03" vaporized=""/>
    <tripinfo id="17" depart="437.00" departLane="a161_0" departPos="5.10" departSpeed="0.00" departDelay="0.01" arrival="756.00" arrivalLane="b2[1][1][1]b_0" arrivalPos="325.74" arrivalSpeed="12.79" duration="319.00" routeLength="2870.27" waitingTime="60.00" waitingCount="3" stopTime="0.00" timeLoss="96.31" rerouteNo="0" devices="vehroute_17 tripinfo_17 fcd_17" vType="DEFAULT_VEHTYPE" speedFactor="0.94" vaporized=""/>
    <tripinfo id="12" depart="306.00" departLane="a37_0" departPos="5.10" departSpeed="0.00" departDelay="0.75" arrival="777.00" arrivalLane="b4[1][1][1]_0" arrivalPos="171.54" arrivalSpeed="14.31" duration="471.00" routeLength="3011.93" waitingTime="183.00" waitingCount="7" stopTime="0.00" timeLoss="258.65" rerouteNo="0" devices="vehroute_12 tripinfo_12 fcd_12" vType="DEFAULT_VEHTYPE" speedFactor="1.05" vaporized=""/>
    <tripinfo id="15" depart="364.00" departLane="a37_0" departPos="5.10" departSpeed="0.00" departDelay="0.24" arrival="781.00" arrivalLane="b4[1][1][1]_0" arrivalPos="171.54" arrivalSpeed="11.93" duration="417.00" routeLength="3011.93" waitingTime="122.00" waitingCount="5" stopTime="0.00" timeLoss="177.09" rerouteNo="0" devices="vehroute_15 tripinfo_15 fcd_15" vType="DEFAULT_VEHTYPE" speedFactor="0.93" vaporized=""/>
    <tripinfo id="18" depart="471.00" departLane="a210_0" departPos="5.10" departSpeed="0.00" departDelay="0.44" arrival="783.00" arrivalLane="b4[1][1][1]_0" arrivalPos="171.54" arrivalSpeed="12.64" duration="312.00" routeLength="2767.14" waitingTime="62.00" waitingCount="4" stopTime="0.00" timeLoss="97.95" rerouteNo="0" devices="vehroute_18 tripinfo_18 fcd_18" vType="DEFAULT_VEHTYPE" speedFactor="0.94" vaporized=""/>
    <tripinfo id="16" depart="396.00" departLane="a210_0" departPos="5.10" departSpeed="0.00" departDelay="0.95" arrival="786.00" arrivalLane="b4[1][1][1]_0" arrivalPos="171.54" arrivalSpeed="12.16" duration="390.00" routeLength="2767.14" waitingTime="121.00" waitingCount="5" stopTime="0.00" timeLoss="162.25" rerouteNo="0" devices="vehroute_16 tripinfo_16 fcd_16" vType="DEFAULT_VEHTYPE" speedFactor="0.88" vaporized=""/>
    <tripinfo id="19" depart="494.00" departLane="a210_0" departPos="5.10" departSpeed="0.00" departDelay="0.41" arrival="788.00" arrivalLane="b11[0]_0" arrivalPos="90.93" arrivalSpeed="15.55" duration="294.00" routeLength="2879.67" waitingTime="65.00" waitingCount="5" stopTime="0.00" timeLoss="111.42" rerouteNo="0" devices="vehroute_19 tripinfo_19 fcd_19" vType="DEFAULT_VEHTYPE" speedFactor="1.16" vaporized=""/>
    <tripinfo id="21" depart="541.00" departLane="a161_0" departPos="5.10" departSpeed="0.00" departDelay="0.39" arrival="878.00" arrivalLane="b2[1][1][1]b_0" arrivalPos="325.74" arrivalSpeed="13.21" duration="337.00" routeLength="2873.23" waitingTime="90.00" waitingCount="4" stopTime="0.00" timeLoss="130.24" rerouteNo="0" devices="vehroute_21 tripinfo_21 fcd_21" vType="DEFAULT_VEHTYPE" speedFactor="1.01" vaporized=""/>
    <tripinfo id="20" depart="541.00" departLane="a37_0" departPos="5.10" departSpeed="0.00" departDelay="0.82" arrival="964.00" arrivalLane="b4[1][1][1]_0" arrivalPos="171.54" arrivalSpeed="13.21" duration="423.00" routeLength="3011.93" waitingTime="144.00" waitingCount="6" stopTime="0.00" timeLoss="204.76" rerouteNo="0" devices="vehroute_20 tripinfo_20 fcd_20" vType="DEFAULT_VEHTYPE" speedFactor="1.02" vaporized=""/>
    <tripinfo id="22" depart="627.00" departLane="a37_0" departPos="5.10" departSpeed="0.00" departDelay="0.21" arrival="966.00" arrivalLane="b4[1][1][1]_0" arrivalPos="171.54" arrivalSpeed="12.28" duration="339.00" routeLength="3011.93" waitingTime="58.00" waitingCount="4" stopTime="0.00" timeLoss="111.87" rerouteNo="0" devices="vehroute_22 tripinfo_22 fcd_22" vType="DEFAULT_VEHTYPE" speedFactor="0.97" vaporized=""/>
    <tripinfo id="25" depart="741.00" departLane="a210_0" departPos="5.10" departSpeed="0.00" departDelay="0.53" arrival="1093.00" arrivalLane="b4[1][1][1]_0" arrivalPos="171.54" arrivalSpeed="11.20" duration="352.00" routeLength="2767.14" waitingTime="90.00" waitingCount="3" stopTime="0.00" timeLoss="121.91" rerouteNo="0" devices="vehroute_25 tripinfo_25 fcd_25" vType="DEFAULT_VEHTYPE" speedFactor="0.87" vaporized=""/>
    <tripinfo id="23" depart="667.00" departLane="a37_0" departPos="5.10" departSpeed="0.00" departDelay="0.30" arrival="1094.00" arrivalLane="b4[1][1][1]_0" arrivalPos="171.54" arrivalSpeed="12.10" duration="427.00" routeLength="3011.93" waitingTime="123.00" waitingCount="5" stopTime="0.00" timeLoss="178.33" rerouteNo="0" devices="vehroute_23 tripinfo_23 fcd_23" vType="DEFAULT_VEHTYPE" speedFactor="0.89" vaporized=""/>
    <tripinfo id="26" depart="775.00" departLane="a37_0" departPos="5.10" departSpeed="0.00" departDelay="0.27" arrival="1096.00" arrivalLane="b4[1][1][1]_0" arrivalPos="171.54" arrivalSpeed="12.08" duration="321.00" routeLength="3011.93" waitingTime="30.00" waitingCount="3" stopTime="0.00" timeLoss="80.10" rerouteNo="0" devices="vehroute_26 tripinfo_26 fcd_26" vType="DEFAULT_VEHTYPE" speedFactor="0.92" vaporized=""/>
    <tripinfo id="24" depart="701.00" departLane="a37_0" departPos="5.10" departSpeed="0.00" departDelay="0.36" arrival="1101.00" arrivalLane="b4[1][1][1]_0" arrivalPos="171.54" arrivalSpeed="11.42" duration="400.00" routeLength="3011.93" waitingTime="82.00" waitingCount="3" stopTime="0.00" timeLoss="129.97" rerouteNo="0" devices="vehroute_24 tripinfo_24 fcd_24" vType="DEFAULT_VEHTYPE" speedFactor="0.83" vaporized=""/>
    <tripinfo id="27" depart="869.00" departLane="a37_0" departPos="5.10" departSpeed="0.00" departDelay="0.67" arrival="1217.00" arrivalLane="b4[1][1][1]_0" arrivalPos="171.54" arrivalSpeed="13.09" duration="348.00" routeLength="3011.93" waitingTime="67.00" waitingCount="5" stopTime="0.00" timeLoss="114.12" rerouteNo="0" devices="vehroute_27 tripinfo_27 fcd_27" vType="DEFAULT_VEHTYPE" speedFactor="0.95" vaporized=""/>
    <tripinfo id="28" depart="917.00" departLane="a210_0" departPos="5.10" departSpeed="0.00" departDelay="0.19" arrival="1218.00" arrivalLane="b4[1][1][1]_0" arrivalPos="171.54" arrivalSpeed="13.74" duration="301.00" routeLength="2767.14" waitingTime="89.00" waitingCount="4" stopTime="0.00" timeLoss="123.89" rerouteNo="0" devices="vehroute_28 tripinfo_28 fcd_28" vType="DEFAULT_VEHTYPE" speedFactor="1.13" vaporized=""/>
    <tripinfo id="29" depart="936.00" departLane="a210_0" departPos="5.10" departSpeed="0.00" departDelay="0.67" arrival="1221.00" arrivalLane="b4[1][1][1]_0" arrivalPos="171.54" arrivalSpeed="11.71" duration="285.00" routeLength="2764.18" waitingTime="40.00" waitingCount="2" stopTime="0.00" timeLoss="70.35" rerouteNo="0" devices="vehroute_29 tripinfo_29 fcd_29" vType="DEFAULT_VEHTYPE" speedFactor="0.93" vaporized=""/>
    <tripinfo id="30" depart="955.00" departLane="a37_0" departPos="5.10" departSpeed="0.00" departDelay="0.83" arrival="1340.00" arrivalLane="b4[1][1][1]_0" arrivalPos="171.54" arrivalSpeed="15.44" duration="385.00" routeLength="3011.93" waitingTime="128.00" waitingCount="7" stopTime="0.00" timeLoss="197.18" rerouteNo="0" devices="vehroute_30 tripinfo_30 fcd_30" vType="DEFAULT_VEHTYPE" speedFactor="1.18" vaporized=""/>
    <tripinfo id="32" depart="1068.00" departLane="a210_0" departPos="5.10" departSpeed="0.00" departDelay="0.47" arrival="1357.00" arrivalLane="b4[1][1][1]_0" arrivalPos="171.54" arrivalSpeed="13.23" duration="289.00" routeLength="2767.14" waitingTime="60.00" waitingCount="3" stopTime="0.00" timeLoss="89.60" rerouteNo="0" devices="vehroute_32 tripinfo_32 fcd_32" vType="DEFAULT_VEHTYPE" speedFactor="1.01" vaporized=""/>
    <tripinfo id="31" depart="1064.00" departLane="a37_0" departPos="5.10" departSpeed="0.00" departDelay="0.40" arrival="1466.00" arrivalLane="b4[1][1][1]_0" arrivalPos="171.54" arrivalSpeed="14.77" duration="402.00" routeLength="3011.93" waitingTime="144.00" waitingCount="7" stopTime="0.00" timeLoss="210.27" rerouteNo="0" devices="vehroute_31 tripinfo_31 fcd_31" vType="DEFAULT_VEHTYPE" speedFactor="1.15" vaporized=""/>
    <tripinfo id="37" depart="1272.00" departLane="a210_0" departPos="5.10" departSpeed="0.00" departDelay="0.29" arrival="1468.00" arrivalLane="b4[1][1][1]_0" arrivalPos="171.54" arrivalSpeed="16.08" duration="196.00" routeLength="2767.14" waitingTime="2.00" waitingCount="1" stopTime="0.00" timeLoss="25.98" rerouteNo="0" devices="vehroute_37 tripinfo_37 fcd_37" vType="DEFAULT_VEHTYPE" speedFactor="1.18" vaporized=""/>
    <tripinfo id="33" depart="1103.00" departLane="a161_0" departPos="5.10" departSpeed="0.00" departDelay="0.49" arrival="1475.00" arrivalLane="b2[1][1][1]b_0" arrivalPos="325.74" arrivalSpeed="15.02" duration="372.00" routeLength="2865.78" waitingTime="151.00" waitingCount="4" stopTime="0.00" timeLoss="194.24" rerouteNo="0" devices="vehroute_33 tripinfo_33 fcd_33" vType="DEFAULT_VEHTYPE" speedFactor="1.17" vaporized=""/>
    <tripinfo id="35" depart="1169.00" departLane="a37_0" departPos="5.10" departSpeed="0.00" departDelay="0.17" arrival="1600.00" arrivalLane="b4[1][1][1]_0" arrivalPos="171.54" arrivalSpeed="13.07" duration="431.00" routeLength="3011.93" waitingTime="147.00" waitingCount="6" stopTime="0.00" timeLoss="212.70" rerouteNo="0" devices="vehroute_35 tripinfo_35 fcd_35" vType="DEFAULT_VEHTYPE" speedFactor="1.02" vaporized=""/>
    <tripinfo id="34" depart="1136.00" departLane="a37_0" departPos="5.10" departSpeed="0.00" departDelay="0.54" arrival="1603.00" arrivalLane="b4[1][1][1]_0" arrivalPos="171.54" arrivalSpeed="13.21" duration="467.00" routeLength="3011.93" waitingTime="174.00" waitingCount="8" stopTime="0.00" timeLoss="244.45" rerouteNo="0" devices="vehroute_34 tripinfo_34 fcd_34" vType="DEFAULT_VEHTYPE" speedFactor="0.99" vaporized=""/>
    <tripinfo id="36" depart="1259.00" departLane="a161_0" departPos="5.10" departSpeed="0.00" departDelay="0.07" arrival="1611.00" arrivalLane="b2[1][1][1]b_0" arrivalPos="325.74" arrivalSpeed="12.88" duration="352.00" routeLength="2865.78" waitingTime="101.00" waitingCount="3" stopTime="0.00" timeLoss="137.39" rerouteNo="0" devices="vehroute_36 tripinfo_36 fcd_36" vType="DEFAULT_VEHTYPE" speedFactor="0.97" vaporized=""/>
    <tripinfo id="38" depart="1324.00" departLane="a210_0" departPos="5.10" departSpeed="0.00" departDelay="0.07" arrival="1634.00" arrivalLane="b11[0]_0" arrivalPos="90.93" arrivalSpeed="14.97" duration="310.00" routeLength="2879.67" waitingTime="68.00" waitingCount="5" stopTime="0.00" timeLoss="118.57" rerouteNo="0" devices="vehroute_38 tripinfo_38 fcd_38" vType="DEFAULT_VEHTYPE" speedFactor="1.10" vaporized=""/>
    <tripinfo id="41" depart="1421.00" departLane="a210_0" departPos="5.10" departSpeed="0.00" departDelay="0.89" arrival="1734.00" arrivalLane="b4[1][1][1]_0" arrivalPos="171.54" arrivalSpeed="12.44" duration="313.00" routeLength="2767.14" waitingTime="70.00" waitingCount="3" stopTime="0.00" timeLoss="103.91" rerouteNo="0" devices="vehroute_41 tripinfo_41 fcd_41" vType="DEFAULT_VEHTYPE" speedFactor="0.96" vaporized=""/>
    <tripinfo id="44" depart="1534.00" departLane="a210_0" departPos="5.10" departSpeed="0.00" departDelay="0.10" arrival="1772.00" arrivalLane="b11[0]_0" arrivalPos="90.93" arrivalSpeed="14.48" duration="238.00" routeLength="2879.67" waitingTime="5.00" waitingCount="2" stopTime="0.00" timeLoss="34.99" rerouteNo="0" devices="vehroute_44 tripinfo_44 fcd_44" vType="DEFAULT_VEHTYPE" speedFactor="1.04" vaporized=""/>
    <tripinfo id="45" depart="1576.00" departLane="a210_0" departPos="5.10" departSpeed="0.00" departDelay="0.63" arrival="1774.00" arrivalLane="b4[1][1][1]_0" arrivalPos="171.54" arrivalSpeed="14.67" duration="198.00" routeLength="2767.14" waitingTime="0.00" waitingCount="0" stopTime="0.00" timeLoss="13.87" rerouteNo="0" devices="vehroute_45 tripinfo_45 fcd_45" vType="DEFAULT_VEHTYPE" speedFactor="1.09" vaporized=""/>
    <tripinfo id="43" depart="1499.00" departLane="a161_0" departPos="5.10" departSpeed="0.00" departDelay="0.85" arrival="1838.00" arrivalLane="b2[1][1][1]b_0" arrivalPos="325.74" arrivalSpeed="13.73" duration="339.00" routeLength="2873.23" waitingTime="101.00" waitingCount="3" stopTime="0.00" timeLoss="137.42" rerouteNo="0" devices="vehroute_43 tripinfo_43 fcd_43" vType="DEFAULT_VEHTYPE" speedFactor="1.04" vaporized=""/>
    <tripinfo id="40" depart="1375.00" departLane="a37_0" departPos="5.10" departSpeed="0.00" departDelay="0.02" arrival="1865.00" arrivalLane="b4[1][1][1]_0" arrivalPos="171.54" arrivalSpeed="14.26" duration="490.00" routeLength="3011.93" waitingTime="192.00" waitingCount="6" stopTime="0.00" timeLoss="273.23" rerouteNo="0" devices="vehroute_40 tripinfo_40 fcd_40" vType="DEFAULT_VEHTYPE" speedFactor="1.03" vaporized=""/>
    <tripinfo id="42" depart="1491.00" departLane="a37_0" departPos="5.10" departSpeed="0.00" departDelay="0.13" arrival="1866.00" arrivalLane="b4[1][1][1]_0" arrivalPos="171.54" arrivalSpeed="15.06" duration="375.00" routeLength="3011.93" waitingTime="91.00" waitingCount="5" stopTime="0.00" timeLoss="171.84" rerouteNo="0" devices="vehroute_42 tripinfo_42 fcd_42" vType="DEFAULT_VEHTYPE" speedFactor="1.09" vaporized=""/>
    <tripinfo id="39" depart="1354.00" departLane="a37_0" departPos="5.10" departSpeed="0.00" departDelay="0.80" arrival="1871.00" arrivalLane="b4[1][1][1]_0" arrivalPos="171.54" arrivalSpeed="11.37" duration="517.00" routeLength="3011.93" waitingTime="207.00" waitingCount="7" stopTime="0.00" timeLoss="271.03" rerouteNo="0" devices="vehroute_39 tripinfo_39 fcd_39" vType="DEFAULT_VEHTYPE" speedFactor="0.90" vaporized=""/>
    <tripinfo id="46" depart="1620.00" departLane="a161_0" departPos="5.10" departSpeed="0.00" departDelay="0.78" arrival="1965.00" arrivalLane="b2[1][1][1]b_0" arrivalPos="325.74" arrivalSpeed="13.38" duration="345.00" routeLength="2873.23" waitingTime="100.00" waitingCount="3" stopTime="0.00" timeLoss="134.45" rerouteNo="0" devices="vehroute_46 tripinfo_46 fcd_46" vType="DEFAULT_VEHTYPE" speedFactor="1.00" vaporized=""/>
    <tripinfo id="47" depart="1636.00" departLane="a37_0" departPos="5.10" departSpeed="0.00" departDelay="0.24" arrival="2004.00" arrivalLane="b4[1][1][1]_0" arrivalPos="171.54" arrivalSpeed="11.79" duration="368.00" routeLength="3011.93" waitingTime="70.00" waitingCount="4" stopTime="0.00" timeLoss="122.46" rerouteNo="0" devices="vehroute_47 tripinfo_47 fcd_47" vType="DEFAULT_VEHTYPE" speedFactor="0.90" vaporized=""/>
    <tripinfo id="48" depart="1655.00" departLane="a210_0" departPos="5.10" departSpeed="0.00" departDelay="0.99" arrival="2007.00" arrivalLane="b4[1][1][1]_0" arrivalPos="171.54" arrivalSpeed="11.90" duration="352.00" routeLength="2764.18" waitingTime="82.00" waitingCount="4" stopTime="0.00" timeLoss="123.87" rerouteNo="0" devices="vehroute_48 tripinfo_48 fcd_48" vType="DEFAULT_VEHTYPE" speedFactor="0.88" vaporized=""/>
    <tripinfo id="50" depart="1714.00" departLane="a210_0" departPos="5.10" departSpeed="0.00" departDelay="0.33" arrival="2010.00" arrivalLane="b4[1][1][1]_0" arrivalPos="171.54" arrivalSpeed="10.90" duration="296.00" routeLength="2767.14" waitingTime="23.00" waitingCount="3" stopTime="0.00" timeLoss="61.75" rerouteNo="0" devices="vehroute_50 tripinfo_50 fcd_50" vType="DEFAULT_VEHTYPE" speedFactor="0.85" vaporized=""/>
    <tripinfo id="49" depart="1662.00" departLane="a210_0" departPos="5.10" departSpeed="0.00" departDelay="0.68" arrival="2013.00" arrivalLane="b4[1][1][1]_0" arrivalPos="171.54" arrivalSpeed="10.55" duration="351.00" routeLength="2767.14" waitingTime="74.00" waitingCount="4" stopTime="0.00" timeLoss="115.17" rerouteNo="0" devices="vehroute_49 tripinfo_49 fcd_49" vType="DEFAULT_VEHTYPE" speedFactor="0.85" vaporized=""/>
    <tripinfo id="51" depart="1733.00" departLane="a37_0" departPos="5.10" departSpeed="0.00" departDelay="0.16" arrival="2023.00" arrivalLane="b4[1][1][1]_0" arrivalPos="171.54" arrivalSpeed="15.77" duration="290.00" routeLength="3011.93" waitingTime="44.00" waitingCount="5" stopTime="0.00" timeLoss="99.71" rerouteNo="0" devices="vehroute_51 tripinfo_51 fcd_51" vType="DEFAULT_VEHTYPE" speedFactor="1.17" vaporized=""/>
    <tripinfo id="53" depart="1758.00" departLane="a210_0" departPos="5.10" departSpeed="0.00" departDelay="0.33" arrival="2026.00" arrivalLane="b11[0]_0" arrivalPos="90.93" arrivalSpeed="14.04" duration="268.00" routeLength="2879.67" waitingTime="28.00" waitingCount="4" stopTime="0.00" timeLoss="74.50" rerouteNo="0" devices="vehroute_53 tripinfo_53 fcd_53" vType="DEFAULT_VEHTYPE" speedFactor="1.10" vaporized=""/>
    <tripinfo id="52" depart="1757.00" departLane="a37_0" departPos="5.10" departSpeed="0.00" departDelay="0.73" arrival="2035.00" arrivalLane="b4[1][1][1]_0" arrivalPos="171.54" arrivalSpeed="14.04" duration="278.00" routeLength="3011.93" waitingTime="11.00" waitingCount="2" stopTime="0.00" timeLoss="59.46" rerouteNo="0" devices="vehroute_52 tripinfo_52 fcd_52" vType="DEFAULT_VEHTYPE" speedFactor="1.02" vaporized=""/>
    <tripinfo id="56" depart="1867.00" departLane="a210_0" departPos="5.10" departSpeed="0.00" departDelay="0.73" arrival="2159.00" arrivalLane="b11[0]_0" arrivalPos="90.93" arrivalSpeed="12.06" duration="292.00" routeLength="2879.67" waitingTime="19.00" waitingCount="3" stopTime="0.00" timeLoss="56.95" rerouteNo="0" devices="vehroute_56 tripinfo_56 fcd_56" vType="DEFAULT_VEHTYPE" speedFactor="0.90" vaporized=""/>
    <tripinfo id="55" depart="1844.00" departLane="a37_0" departPos="5.10" departSpeed="0.00" departDelay="0.00" arrival="2192.00" arrivalLane="b4[1][1][1]_0" arrivalPos="171.54" arrivalSpeed="13.55" duration="348.00" routeLength="3011.93" waitingTime="69.00" waitingCount="6" stopTime="0.00" timeLoss="126.04" rerouteNo="0" devices="vehroute_55 tripinfo_55 fcd_55" vType="DEFAULT_VEHTYPE" speedFactor="1.00" vaporized=""/>
    <tripinfo id="54" depart="1834.00" departLane="a161_0" departPos="5.10" departSpeed="0.00" departDelay="0.08" arrival="2218.00" arrivalLane="b2[1][1][1]b_0" arrivalPos="325.74" arrivalSpeed="13.90" duration="384.00" routeLength="2868.74" waitingTime="134.00" waitingCount="4" stopTime="0.00" timeLoss="176.10" rerouteNo="0" devices="vehroute_54 tripinfo_54 fcd_54" vType="DEFAULT_VEHTYPE" speedFactor="1.00" vaporized=""/>
    <tripinfo id="58" depart="1928.00" departLane="a210_0" departPos="5.10" departSpeed="0.00" departDelay="0.88" arrival="2271.00" arrivalLane="b11[0]_0" arrivalPos="90.93" arrivalSpeed="14.06" duration="343.00" routeLength="2879.67" waitingTime="85.00" waitingCount="7" stopTime="0.00" timeLoss="136.72" rerouteNo="0" devices="vehroute_58 tripinfo_58 fcd_58" vType="DEFAULT_VEHTYPE" speedFactor="1.02" vaporized=""/>
    <tripinfo id="57" depart="1898.00" departLane="a37_0" departPos="5.10" departSpeed="0.00" departDelay="0.65" arrival="2316.00" arrivalLane="b4[1][1][1]_0" arrivalPos="171.54" arrivalSpeed="14.72" duration="418.00" routeLength="3011.93" waitingTime="151.00" waitingCount="7" stopTime="0.00" timeLoss="223.84" rerouteNo="0" devices="vehroute_57 tripinfo_57 fcd_57" vType="DEFAULT_VEHTYPE" speedFactor="1.14" vaporized=""/>
    <tripinfo id="59" depart="1973.00" departLane="a37_0" departPos="5.10" departSpeed="0.00" departDelay="0.35" arrival="2444.00" arrivalLane="b4[1][1][1]_0" arrivalPos="171.54" arrivalSpeed="12.81" duration="471.00" routeLength="3011.93" waitingTime="190.00" waitingCount="6" stopTime="0.00" timeLoss="241.82" rerouteNo="0" devices="vehroute_59 tripinfo_59 fcd_59" vType="DEFAULT_VEHTYPE" speedFactor="0.97" vaporized=""/>
    <tripinfo id="61" depart="2215.00" departLane="a210_0" departPos="5.10" departSpeed="0.00" departDelay="0.95" arrival="2516.00" arrivalLane="b11[0]_0" arrivalPos="90.93" arrivalSpeed="15.31" duration="301.00" routeLength="2879.67" waitingTime="62.00" waitingCount="4" stopTime="0.00" timeLoss="111.74" rerouteNo="0" devices="vehroute_61 tripinfo_61 fcd_61" vType="DEFAULT_VEHTYPE" speedFactor="1.12" vaporized=""/>
    <tripinfo id="60" depart="2211.00" departLane="a37_0" departPos="5.10" departSpeed="0.00" departDelay="0.84" arrival="2569.00" arrivalLane="b4[1][1][1]_0" arrivalPos="171.54" arrivalSpeed="14.17" duration="358.00" routeLength="3011.93" waitingTime="101.00" waitingCount="5" stopTime="0.00" timeLoss="153.53" rerouteNo="0" devices="vehroute_60 tripinfo_60 fcd_60" vType="DEFAULT_VEHTYPE" speedFactor="1.08" vaporized=""/>
    <tripinfo id="62" depart="2215.00" departLane="a37_0" departPos="5.10" departSpeed="0.00" departDelay="0.21" arrival="2572.00" arrivalLane="b4[1][1][1]_0" arrivalPos="171.54" arrivalSpeed="13.17" duration="357.00" routeLength="3011.93" waitingTime="85.00" waitingCount="4" stopTime="0.00" timeLoss="138.70" rerouteNo="0" devices="vehroute_62 tripinfo_62 fcd_62" vType="DEFAULT_VEHTYPE" speedFactor="1.02" vaporized=""/>
    <tripinfo id="64" depart="2249.00" departLane="a210_0" departPos="5.10" departSpeed="0.00" departDelay="0.21" arrival="2646.00" arrivalLane="b11[0]_0" arrivalPos="90.93" arrivalSpeed="12.70" duration="397.00" routeLength="2879.67" waitingTime="121.00" waitingCount="6" stopTime="0.00" timeLoss="171.96" rerouteNo="0" devices="vehroute_64 tripinfo_64 fcd_64" vType="DEFAULT_VEHTYPE" speedFactor="0.94" vaporized=""/>
    <tripinfo id="66" depart="2294.00" departLane="a210_0" departPos="5.10" departSpeed="0.00" departDelay="0.07" arrival="2649.00" arrivalLane="b11[0]_0" arrivalPos="90.93" arrivalSpeed="11.54" duration="355.00" routeLength="2879.67" waitingTime="72.00" waitingCount="3" stopTime="0.00" timeLoss="121.46" rerouteNo="0" devices="vehroute_66 tripinfo_66 fcd_66" vType="DEFAULT_VEHTYPE" speedFactor="0.91" vaporized=""/>
    <tripinfo id="63" depart="2247.00" departLane="a37_0" departPos="5.10" departSpeed="0.00" departDelay="0.97" arrival="2696.00" arrivalLane="b4[1][1][1]_0" arrivalPos="171.54" arrivalSpeed="12.92" duration="449.00" routeLength="3011.93" waitingTime="164.00" waitingCount="6" stopTime="0.00" timeLoss="223.43" rerouteNo="0" devices="vehroute_63 tripinfo_63 fcd_63" vType="DEFAULT_VEHTYPE" speedFactor="0.99" vaporized=""/>
    <tripinfo id="68" depart="2378.00" departLane="a161_0" departPos="5.10" departSpeed="0.00" departDelay="0.91" arrival="2700.00" arrivalLane="b2[1][1][1]b_0" arrivalPos="325.74" arrivalSpeed="13.38" duration="322.00" routeLength="2868.74" waitingTime="80.00" waitingCount="3" stopTime="0.00" timeLoss="120.94" rerouteNo="0" devices="vehroute_68 tripinfo_68 fcd_68" vType="DEFAULT_VEHTYPE" speedFactor="1.04" vaporized=""/>