<?xml version="1.0" encoding="UTF-8"?>

<!-- generated on 2025-03-21 17:47:17 by Eclipse SUMO sumo Version 1.21.0
<sumoConfiguration xmlns:xsi="http://www.w3.org/2001/XMLSchema-instance" xsi:noNamespaceSchemaLocation="http://sumo.dlr.de/xsd/sumoConfiguration.xsd">

    <input>
        <net-file value="${STATICPATH}/joined_lanes.net.xml"/>
        <route-files value="${SIMULATIONPATH}/generatedRoutes.rou.xml"/>
        <additional-files value="${STATICPATH}/detectors.add.xml,${STATICPATH}/joined_vtypes.add.xml,${STATICPATH}/joined_tls.add.xml"/>
    </input>

    <output>
        <fcd-output value="${SIMULATIONPATH}/fcd.xml"/>
        <queue-output value="${SIMULATIONPATH}/queue.xml"/>
        <summary-output value="${SIMULATIONPATH}/summary.xml"/>
        <tripinfo-output value="${SIMULATIONPATH}/tripinfos.xml"/>
        <vehroute-output value="${SIMULATIONPATH}/vehroute.xml"/>
        <save-state.prefix value="configs\state"/>
    </output>

    <processing>
        <ignore-junction-blocker value="1"/>
        <ignore-route-errors value="true"/>
        <time-to-teleport value="-1"/>
    </processing>

    <report>
        <log value="C:/Users/fabio/Desktop/sumo_log.txt"/>
        <no-step-log value="true"/>
    </report>

    <emissions>
        <phemlight-path value="configs\./PHEMlight/"/>
    </emissions>

    <traci_server>
        <remote-port value="60190"/>
    </traci_server>

</sumoConfiguration>
-->

<tripinfos xmlns:xsi="http://www.w3.org/2001/XMLSchema-instance" xsi:noNamespaceSchemaLocation="http://sumo.dlr.de/xsd/tripinfo_file.xsd">
    <tripinfo id="0" depart="2.00" departLane="a210_0" departPos="5.10" departSpeed="0.00" departDelay="0.80" arrival="271.00" arrivalLane="b3[1]b_0" arrivalPos="239.77" arrivalSpeed="13.43" duration="269.00" routeLength="3030.71" waitingTime="35.00" waitingCount="3" stopTime="0.00" timeLoss="61.91" rerouteNo="0" devices="vehroute_0 tripinfo_0 fcd_0" vType="DEFAULT_VEHTYPE" speedFactor="1.06" vaporized=""/>
    <tripinfo id="1" depart="5.00" departLane="a210_0" departPos="5.10" departSpeed="0.00" departDelay="0.55" arrival="274.00" arrivalLane="b3[1]b_0" arrivalPos="239.77" arrivalSpeed="11.90" duration="269.00" routeLength="3025.46" waitingTime="16.00" waitingCount="1" stopTime="0.00" timeLoss="35.98" rerouteNo="0" devices="vehroute_1 tripinfo_1 fcd_1" vType="DEFAULT_VEHTYPE" speedFactor="0.94" vaporized=""/>
    <tripinfo id="3" depart="73.00" departLane="a210_0" departPos="5.10" departSpeed="0.00" departDelay="0.91" arrival="422.00" arrivalLane="b3[1]b_0" arrivalPos="239.77" arrivalSpeed="14.43" duration="349.00" routeLength="3030.71" waitingTime="105.00" waitingCount="4" stopTime="0.00" timeLoss="146.74" rerouteNo="0" devices="vehroute_3 tripinfo_3 fcd_3" vType="DEFAULT_VEHTYPE" speedFactor="1.08" vaporized=""/>
    <tripinfo id="4" depart="83.00" departLane="a210_0" departPos="5.10" departSpeed="0.00" departDelay="0.58" arrival="423.00" arrivalLane="b3[1]b_0" arrivalPos="239.77" arrivalSpeed="13.36" duration="340.00" routeLength="3022.50" waitingTime="92.00" waitingCount="4" stopTime="0.00" timeLoss="127.88" rerouteNo="0" devices="vehroute_4 tripinfo_4 fcd_4" vType="DEFAULT_VEHTYPE" speedFactor="1.03" vaporized=""/>
    <tripinfo id="2" depart="64.00" departLane="a210_0" departPos="5.10" departSpeed="0.00" departDelay="0.32" arrival="426.00" arrivalLane="b3[1]b_0" arrivalPos="239.77" arrivalSpeed="13.98" duration="362.00" routeLength="3030.71" waitingTime="101.00" waitingCount="4" stopTime="0.00" timeLoss="145.04" rerouteNo="0" devices="vehroute_2 tripinfo_2 fcd_2" vType="DEFAULT_VEHTYPE" speedFactor="1.01" vaporized=""/>
    <tripinfo id="6" depart="269.00" departLane="a210_0" departPos="5.10" departSpeed="0.00" departDelay="0.33" arrival="580.00" arrivalLane="b3[1]b_0" arrivalPos="239.77" arrivalSpeed="14.05" duration="311.00" routeLength="3027.75" waitingTime="70.00" waitingCount="2" stopTime="0.00" timeLoss="101.42" rerouteNo="0" devices="vehroute_6 tripinfo_6 fcd_6" vType="DEFAULT_VEHTYPE" speedFactor="1.05" vaporized=""/>
    <tripinfo id="7" depart="288.00" departLane="a210_0" departPos="5.10" departSpeed="0.00" departDelay="0.12" arrival="586.00" arrivalLane="b3[1]b_0" arrivalPos="239.77" arrivalSpeed="12.02" duration="298.00" routeLength="3025.46" waitingTime="24.00" waitingCount="2" stopTime="0.00" timeLoss="50.42" rerouteNo="0" devices="vehroute_7 tripinfo_7 fcd_7" vType="DEFAULT_VEHTYPE" speedFactor="0.89" vaporized=""/>
    <tripinfo id="8" depart="335.00" departLane="a210_0" departPos="5.10" departSpeed="0.00" departDelay="0.46" arrival="590.00" arrivalLane="b3[1]b_1" arrivalPos="239.77" arrivalSpeed="12.78" duration="255.00" routeLength="3030.71" waitingTime="1.00" waitingCount="1" stopTime="0.00" timeLoss="21.55" rerouteNo="0" devices="vehroute_8 tripinfo_8 fcd_8" vType="DEFAULT_VEHTYPE" speedFactor="0.94" vaporized=""/>
    <tripinfo id="5" depart="228.00" departLane="a210_0" departPos="5.10" departSpeed="0.00" departDelay="0.81" arrival="591.00" arrivalLane="b3[1]b_0" arrivalPos="239.77" arrivalSpeed="11.46" duration="363.00" routeLength="3030.71" waitingTime="64.00" waitingCount="3" stopTime="0.00" timeLoss="98.56" rerouteNo="0" devices="vehroute_5 tripinfo_5 fcd_5" vType="DEFAULT_VEHTYPE" speedFactor="0.83" vaporized=""/>
    <tripinfo id="10" depart="432.00" departLane="a210_0" departPos="5.10" departSpeed="0.00" departDelay="0.62" arrival="745.00" arrivalLane="b3[1]b_0" arrivalPos="239.77" arrivalSpeed="14.59" duration="313.00" routeLength="3030.71" waitingTime="76.00" waitingCount="4" stopTime="0.00" timeLoss="111.70" rerouteNo="0" devices="vehroute_10 tripinfo_10 fcd_10" vType="DEFAULT_VEHTYPE" speedFactor="1.09" vaporized=""/>
    <tripinfo id="12" depart="442.00" departLane="a210_0" departPos="5.10" departSpeed="0.00" departDelay="2.67" arrival="746.00" arrivalLane="b3[1]b_1" arrivalPos="239.77" arrivalSpeed="13.34" duration="304.00" routeLength="3025.46" waitingTime="69.00" waitingCount="2" stopTime="0.00" timeLoss="94.98" rerouteNo="0" devices="vehroute_12 tripinfo_12 fcd_12" vType="DEFAULT_VEHTYPE" speedFactor="1.05" vaporized=""/>
    <tripinfo id="13" depart="502.00" departLane="a210_0" departPos="5.10" departSpeed="0.00" departDelay="0.89" arrival="746.00" arrivalLane="b3[1]b_0" arrivalPos="239.77" arrivalSpeed="14.86" duration="244.00" routeLength="3030.71" waitingTime="24.00" waitingCount="2" stopTime="0.00" timeLoss="48.88" rerouteNo="0" devices="vehroute_13 tripinfo_13 fcd_13" vType="DEFAULT_VEHTYPE" speedFactor="1.12" vaporized=""/>
    <tripinfo id="14" depart="509.00" departLane="a210_0" departPos="5.10" departSpeed="0.00" departDelay="0.40" arrival="753.00" arrivalLane="b3[1]b_0" arrivalPos="239.77" arrivalSpeed="13.68" duration="244.00" routeLength="3030.71" waitingTime="2.00" waitingCount="1" stopTime="0.00" timeLoss="22.23" rerouteNo="0" devices="vehroute_14 tripinfo_14 fcd_14" vType="DEFAULT_VEHTYPE" speedFactor="0.99" vaporized=""/>
    <tripinfo id="9" depart="424.00" departLane="a210_0" departPos="5.10" departSpeed="0.00" departDelay="0.46" arrival="756.00" arrivalLane="b3[1]b_0" arrivalPos="239.77" arrivalSpeed="10.64" duration="332.00" routeLength="3022.50" waitingTime="43.00" waitingCount="2" stopTime="0.00" timeLoss="76.70" rerouteNo="0" devices="vehroute_9 tripinfo_9 fcd_9" vType="DEFAULT_VEHTYPE" speedFactor="0.86" vaporized=""/>
    <tripinfo id="11" depart="439.00" departLane="a210_0" departPos="5.10" departSpeed="0.00" departDelay="0.66" arrival="793.00" arrivalLane="b28_0" arrivalPos="188.87" arrivalSpeed="13.94" duration="354.00" routeLength="3141.35" waitingTime="96.00" waitingCount="2" stopTime="0.00" timeLoss="130.43" rerouteNo="0" devices="vehroute_11 tripinfo_11 fcd_11" vType="DEFAULT_VEHTYPE" speedFactor="1.03" vaporized=""/>
    <tripinfo id="19" depart="617.00" departLane="a210_0" departPos="5.10" departSpeed="0.00" departDelay="2.61" arrival="907.00" arrivalLane="b3[1]b_0" arrivalPos="239.77" arrivalSpeed="15.87" duration="290.00" routeLength="3027.75" waitingTime="66.00" waitingCount="3" stopTime="0.00" timeLoss="101.03" rerouteNo="0" devices="vehroute_19 tripinfo_19 fcd_19" vType="DEFAULT_VEHTYPE" speedFactor="1.16" vaporized=""/>
    <tripinfo id="17" depart="583.00" departLane="a210_0" departPos="5.10" departSpeed="0.00" departDelay="0.65" arrival="914.00" arrivalLane="b3[1]b_0" arrivalPos="239.77" arrivalSpeed="11.80" duration="331.00" routeLength="3025.46" waitingTime="67.00" waitingCount="3" stopTime="0.00" timeLoss="98.17" rerouteNo="0" devices="vehroute_17 tripinfo_17 fcd_17" vType="DEFAULT_VEHTYPE" speedFactor="0.94" vaporized=""/>
    <tripinfo id="15" depart="554.00" departLane="a210_0" departPos="5.10" departSpeed="0.00" departDelay="0.35" arrival="916.00" arrivalLane="b3[1]b_0" arrivalPos="239.77" arrivalSpeed="12.29" duration="362.00" routeLength="3030.71" waitingTime="90.00" waitingCount="4" stopTime="0.00" timeLoss="125.68" rerouteNo="0" devices="vehroute_15 tripinfo_15 fcd_15" vType="DEFAULT_VEHTYPE" speedFactor="0.93" vaporized=""/>
    <tripinfo id="20" depart="640.00" departLane="a210_0" departPos="5.10" departSpeed="0.00" departDelay="0.04" arrival="940.00" arrivalLane="b3[1]b_0" arrivalPos="239.77" arrivalSpeed="13.92" duration="300.00" routeLength="3027.75" waitingTime="52.00" waitingCount="2" stopTime="0.00" timeLoss="84.31" rerouteNo="0" devices="vehroute_20 tripinfo_20 fcd_20" vType="DEFAULT_VEHTYPE" speedFactor="1.02" vaporized=""/>
    <tripinfo id="21" depart="691.00" departLane="a210_0" departPos="5.10" departSpeed="0.00" departDelay="0.58" arrival="942.00" arrivalLane="b3[1]b_0" arrivalPos="239.77" arrivalSpeed="12.73" duration="251.00" routeLength="3030.71" waitingTime="7.00" waitingCount="2" stopTime="0.00" timeLoss="34.19" rerouteNo="0" devices="vehroute_21 tripinfo_21 fcd_21" vType="DEFAULT_VEHTYPE" speedFactor="1.01" vaporized=""/>
    <tripinfo id="18" depart="614.00" departLane="a210_0" departPos="5.10" departSpeed="0.00" departDelay="0.28" arrival="949.00" arrivalLane="b3[1]b_0" arrivalPos="239.77" arrivalSpeed="12.85" duration="335.00" routeLength="3025.46" waitingTime="66.00" waitingCount="3" stopTime="0.00" timeLoss="100.91" rerouteNo="0" devices="vehroute_18 tripinfo_18 fcd_18" vType="DEFAULT_VEHTYPE" speedFactor="0.94" vaporized=""/>
    <tripinfo id="16" depart="574.00" departLane="a210_0" departPos="5.10" departSpeed="0.00" departDelay="0.51" arrival="952.00" arrivalLane="b3[1]b_0" arrivalPos="239.77" arrivalSpeed="11.28" duration="378.00" routeLength="3027.75" waitingTime="95.00" waitingCount="3" stopTime="0.00" timeLoss="128.93" rerouteNo="0" devices="vehroute_16 tripinfo_16 fcd_16" vType="DEFAULT_VEHTYPE" speedFactor="0.88" vaporized=""/>
    <tripinfo id="22" depart="763.00" departLane="a210_0" departPos="5.10" departSpeed="0.00" departDelay="0.68" arrival="1061.00" arrivalLane="b3[1]b_0" arrivalPos="239.77" arrivalSpeed="12.68" duration="298.00" routeLength="3030.71" waitingTime="38.00" waitingCount="4" stopTime="0.00" timeLoss="72.82" rerouteNo="0" devices="vehroute_22 tripinfo_22 fcd_22" vType="DEFAULT_VEHTYPE" speedFactor="0.97" vaporized=""/>
    <tripinfo id="23" depart="766.00" departLane="a210_0" departPos="5.10" departSpeed="0.00" departDelay="2.86" arrival="1083.00" arrivalLane="b3[1]b_0" arrivalPos="239.77" arrivalSpeed="12.06" duration="317.00" routeLength="3027.75" waitingTime="41.00" waitingCount="3" stopTime="0.00" timeLoss="70.98" rerouteNo="0" devices="vehroute_23 tripinfo_23 fcd_23" vType="DEFAULT_VEHTYPE" speedFactor="0.89" vaporized=""/>
    <tripinfo id="25" depart="819.00" departLane="a210_0" departPos="5.10" departSpeed="0.00" departDelay="0.51" arrival="1094.00" arrivalLane="b3[1]b_0" arrivalPos="239.77" arrivalSpeed="11.37" duration="275.00" routeLength="3030.71" waitingTime="2.00" waitingCount="1" stopTime="0.00" timeLoss="23.62" rerouteNo="0" devices="vehroute_25 tripinfo_25 fcd_25" vType="DEFAULT_VEHTYPE" speedFactor="0.87" vaporized=""/>
    <tripinfo id="24" depart="806.00" departLane="a210_0" departPos="5.10" departSpeed="0.00" departDelay="0.99" arrival="1108.00" arrivalLane="b3[1]b_0" arrivalPos="239.77" arrivalSpeed="11.20" duration="302.00" routeLength="3030.71" waitingTime="14.00" waitingCount="1" stopTime="0.00" timeLoss="36.89" rerouteNo="0" devices="vehroute_24 tripinfo_24 fcd_24" vType="DEFAULT_VEHTYPE" speedFactor="0.83" vaporized=""/>
    <tripinfo id="26" depart="838.00" departLane="a210_0" departPos="5.10" departSpeed="0.00" departDelay="0.82" arrival="1180.00" arrivalLane="b28_0" arrivalPos="188.87" arrivalSpeed="12.02" duration="342.00" routeLength="3141.35" waitingTime="52.00" waitingCount="3" stopTime="0.00" timeLoss="90.58" rerouteNo="0" devices="vehroute_26 tripinfo_26 fcd_26" vType="DEFAULT_VEHTYPE" speedFactor="0.92" vaporized=""/>
    <tripinfo id="27" depart="861.00" departLane="a210_0" departPos="5.10" departSpeed="0.00" departDelay="0.40" arrival="1183.00" arrivalLane="b28_0" arrivalPos="188.87" arrivalSpeed="12.97" duration="322.00" routeLength="3141.35" waitingTime="32.00" waitingCount="3" stopTime="0.00" timeLoss="79.01" rerouteNo="0" devices="vehroute_27 tripinfo_27 fcd_27" vType="DEFAULT_VEHTYPE" speedFactor="0.95" vaporized=""/>
    <tripinfo id="28" depart="878.00" departLane="a210_0" departPos="5.10" departSpeed="0.00" departDelay="0.84" arrival="1233.00" arrivalLane="b3[1]b_0" arrivalPos="239.77" arrivalSpeed="14.86" duration="355.00" routeLength="3022.50" waitingTime="119.00" waitingCount="5" stopTime="0.00" timeLoss="161.67" rerouteNo="0" devices="vehroute_28 tripinfo_28 fcd_28" vType="DEFAULT_VEHTYPE" speedFactor="1.13" vaporized=""/>
    <tripinfo id="30" depart="956.00" departLane="a210_0" departPos="5.10" departSpeed="0.00" departDelay="0.61" arrival="1234.00" arrivalLane="b3[1]b_1" arrivalPos="239.77" arrivalSpeed="15.14" duration="278.00" routeLength="3030.71" waitingTime="61.00" waitingCount="3" stopTime="0.00" timeLoss="91.66" rerouteNo="0" devices="vehroute_30 tripinfo_30 fcd_30" vType="DEFAULT_VEHTYPE" speedFactor="1.18" vaporized=""/>
    <tripinfo id="29" depart="926.00" departLane="a210_0" departPos="5.10" departSpeed="0.00" departDelay="0.63" arrival="1243.00" arrivalLane="b3[1]b_0" arrivalPos="239.77" arrivalSpeed="11.91" duration="317.00" routeLength="3030.71" waitingTime="51.00" waitingCount="3" stopTime="0.00" timeLoss="81.31" rerouteNo="0" devices="vehroute_29 tripinfo_29 fcd_29" vType="DEFAULT_VEHTYPE" speedFactor="0.93" vaporized=""/>
    <tripinfo id="31" depart="1000.00" departLane="a210_0" departPos="5.10" departSpeed="0.00" departDelay="0.09" arrival="1366.00" arrivalLane="b3[1]b_1" arrivalPos="239.77" arrivalSpeed="15.14" duration="366.00" routeLength="3025.46" waitingTime="135.00" waitingCount="5" stopTime="0.00" timeLoss="176.25" rerouteNo="0" devices="vehroute_31 tripinfo_31 fcd_31" vType="DEFAULT_VEHTYPE" speedFactor="1.15" vaporized=""/>
    <tripinfo id="33" depart="1071.00" departLane="a210_0" departPos="5.10" departSpeed="0.00" departDelay="0.52" arrival="1366.00" arrivalLane="b3[1]b_0" arrivalPos="239.77" arrivalSpeed="15.51" duration="295.00" routeLength="3030.71" waitingTime="71.00" waitingCount="4" stopTime="0.00" timeLoss="107.98" rerouteNo="0" devices="vehroute_33 tripinfo_33 fcd_33" vType="DEFAULT_VEHTYPE" speedFactor="1.17" vaporized=""/>
    <tripinfo id="35" depart="1130.00" departLane="a210_0" departPos="5.10" departSpeed="0.00" departDelay="0.58" arrival="1373.00" arrivalLane="b3[1]b_0" arrivalPos="239.77" arrivalSpeed="13.53" duration="243.00" routeLength="3030.71" waitingTime="8.00" waitingCount="1" stopTime="0.00" timeLoss="28.07" rerouteNo="0" devices="vehroute_35 tripinfo_35 fcd_35" vType="DEFAULT_VEHTYPE" speedFactor="1.02" vaporized=""/>
    <tripinfo id="32" depart="1007.00" departLane="a210_0" departPos="5.10" departSpeed="0.00" departDelay="0.07" arrival="1417.00" arrivalLane="b28_0" arrivalPos="188.87" arrivalSpeed="12.94" duration="410.00" routeLength="3141.35" waitingTime="133.00" waitingCount="5" stopTime="0.00" timeLoss="181.68" rerouteNo="0" devices="vehroute_32 tripinfo_32 fcd_32" vType="DEFAULT_VEHTYPE" speedFactor="1.01" vaporized=""/>
    <tripinfo id="34" depart="1084.00" departLane="a210_0" departPos="5.10" departSpeed="0.00" departDelay="0.93" arrival="1422.00" arrivalLane="b28_0" arrivalPos="188.87" arrivalSpeed="13.40" duration="338.00" routeLength="3141.35" waitingTime="55.00" waitingCount="3" stopTime="0.00" timeLoss="105.19" rerouteNo="0" devices="vehroute_34 tripinfo_34 fcd_34" vType="DEFAULT_VEHTYPE" speedFactor="0.99" vaporized=""/>
    <tripinfo id="36" depart="1144.00" departLane="a210_0" departPos="5.10" departSpeed="0.00" departDelay="0.89" arrival="1425.00" arrivalLane="b28_0" arrivalPos="188.87" arrivalSpeed="13.32" duration="281.00" routeLength="3141.35" waitingTime="3.00" waitingCount="1" stopTime="0.00" timeLoss="44.55" rerouteNo="0" devices="vehroute_36 tripinfo_36 fcd_36" vType="DEFAULT_VEHTYPE" speedFactor="0.97" vaporized=""/>
    <tripinfo id="37" depart="1162.00" departLane="a210_0" departPos="5.10" departSpeed="0.00" departDelay="0.90" arrival="1426.00" arrivalLane="b28_0" arrivalPos="188.87" arrivalSpeed="15.29" duration="264.00" routeLength="3141.35" waitingTime="2.00" waitingCount="1" stopTime="0.00" timeLoss="68.22" rerouteNo="0" devices="vehroute_37 tripinfo_37 fcd_37" vType="DEFAULT_VEHTYPE" speedFactor="1.18" vaporized=""/>
    <tripinfo id="38" depart="1231.00" departLane="a210_0" departPos="5.10" departSpeed="0.00" departDelay="0.97" arrival="1517.00" arrivalLane="b3[1]b_0" arrivalPos="239.77" arrivalSpeed="14.92" duration="286.00" routeLength="3027.75" waitingTime="50.00" waitingCount="2" stopTime="0.00" timeLoss="87.19" rerouteNo="0" devices="vehroute_38 tripinfo_38 fcd_38" vType="DEFAULT_VEHTYPE" speedFactor="1.10" vaporized=""/>
    <tripinfo id="39" depart="1247.00" departLane="a210_0" departPos="5.10" departSpeed="0.00" departDelay="0.24" arrival="1523.00" arrivalLane="b3[1]b_0" arrivalPos="239.77" arrivalSpeed="11.23" duration="276.00" routeLength="3025.46" waitingTime="12.00" waitingCount="1" stopTime="0.00" timeLoss="32.82" rerouteNo="0" devices="vehroute_39 tripinfo_39 fcd_39" vType="DEFAULT_VEHTYPE" speedFactor="0.90" vaporized=""/>
    <tripinfo id="42" depart="1378.00" departLane="a210_0" departPos="5.10" departSpeed="0.00" departDelay="0.91" arrival="1668.00" arrivalLane="b3[1]b_1" arrivalPos="239.77" arrivalSpeed="14.04" duration="290.00" routeLength="3025.46" waitingTime="55.00" waitingCount="3" stopTime="0.00" timeLoss="89.52" rerouteNo="0" devices="vehroute_42 tripinfo_42 fcd_42" vType="DEFAULT_VEHTYPE" speedFactor="1.09" vaporized=""/>
    <tripinfo id="40" depart="1314.00" departLane="a210_0" departPos="5.10" departSpeed="0.00" departDelay="0.73" arrival="1669.00" arrivalLane="b3[1]b_0" arrivalPos="239.77" arrivalSpeed="14.15" duration="355.00" routeLength="3030.71" waitingTime="113.00" waitingCount="2" stopTime="0.00" timeLoss="142.10" rerouteNo="0" devices="vehroute_40 tripinfo_40 fcd_40" vType="DEFAULT_VEHTYPE" speedFactor="1.03" vaporized=""/>
    <tripinfo id="43" depart="1392.00" departLane="a210_0" departPos="5.10" departSpeed="0.00" departDelay="0.74" arrival="1671.00" arrivalLane="b3[1]b_0" arrivalPos="239.77" arrivalSpeed="13.68" duration="279.00" routeLength="3030.71" waitingTime="43.00" waitingCount="2" stopTime="0.00" timeLoss="68.07" rerouteNo="0" devices="vehroute_43 tripinfo_43 fcd_43" vType="DEFAULT_VEHTYPE" speedFactor="1.04" vaporized=""/>
    <tripinfo id="44" depart="1408.00" departLane="a210_0" departPos="5.10" departSpeed="0.00" departDelay="0.25" arrival="1671.00" arrivalLane="b3[1]b_1" arrivalPos="239.77" arrivalSpeed="14.21" duration="263.00" routeLength="3025.46" waitingTime="28.00" waitingCount="2" stopTime="0.00" timeLoss="53.45" rerouteNo="0" devices="vehroute_44 tripinfo_44 fcd_44" vType="DEFAULT_VEHTYPE" speedFactor="1.04" vaporized=""/>
    <tripinfo id="45" depart="1430.00" departLane="a210_0" departPos="5.10" departSpeed="0.00" departDelay="0.16" arrival="1673.00" arrivalLane="b3[1]b_1" arrivalPos="239.77" arrivalSpeed="14.36" duration="243.00" routeLength="3025.46" waitingTime="16.00" waitingCount="2" stopTime="0.00" timeLoss="41.45" rerouteNo="0" devices="vehroute_45 tripinfo_45 fcd_45" vType="DEFAULT_VEHTYPE" speedFactor="1.09" vaporized=""/>
    <tripinfo id="41" depart="1372.00" departLane="a210_0" departPos="5.10" departSpeed="0.00" departDelay="0.73" arrival="1676.00" arrivalLane="b3[1]b_0" arrivalPos="239.77" arrivalSpeed="13.03" duration="304.00" routeLength="3027.75" waitingTime="45.00" waitingCount="3" stopTime="0.00" timeLoss="74.70" rerouteNo="0" devices="vehroute_41 tripinfo_41 fcd_41" vType="DEFAULT_VEHTYPE" speedFactor="0.96" vaporized=""/>
    <tripinfo id="46" depart="1475.00" departLane="a210_0" departPos="5.10" departSpeed="0.00" departDelay="0.88" arrival="1832.00" arrivalLane="b3[1]b_0" arrivalPos="239.77" arrivalSpeed="12.94" duration="357.00" routeLength="3030.71" waitingTime="106.00" waitingCount="2" stopTime="0.00" timeLoss="136.77" rerouteNo="0" devices="vehroute_46 tripinfo_46 fcd_46" vType="DEFAULT_VEHTYPE" speedFactor="1.00" vaporized=""/>
    <tripinfo id="47" depart="1522.00" departLane="a210_0" departPos="5.10" departSpeed="0.00" departDelay="0.32" arrival="1835.00" arrivalLane="b3[1]b_0" arrivalPos="239.77" arrivalSpeed="11.73" duration="313.00" routeLength="3025.46" waitingTime="40.00" waitingCount="2" stopTime="0.00" timeLoss="70.22" rerouteNo="0" devices="vehroute_47 tripinfo_47 fcd_47" vType="DEFAULT_VEHTYPE" speedFactor="0.90" vaporized=""/>
    <tripinfo id="48" depart="1550.00" departLane="a210_0" departPos="5.10" departSpeed="0.00" departDelay="0.79" arrival="1839.00" arrivalLane="b3[1]b_0" arrivalPos="239.77" arrivalSpeed="11.53" duration="289.00" routeLength="3027.75" waitingTime="13.00" waitingCount="2" stopTime="0.00" timeLoss="39.62" rerouteNo="0" devices="vehroute_48 tripinfo_48 fcd_48" vType="DEFAULT_VEHTYPE" speedFactor="0.88" vaporized=""/>
    <tripinfo id="51" depart="1726.00" departLane="a210_0" departPos="5.10" departSpeed="0.00" departDelay="0.32" arrival="1995.00" arrivalLane="b3[1]b_0" arrivalPos="239.77" arrivalSpeed="16.04" duration="269.00" routeLength="3030.71" waitingTime="50.00" waitingCount="3" stopTime="0.00" timeLoss="81.19" rerouteNo="0" devices="vehroute_51 tripinfo_51 fcd_51" vType="DEFAULT_VEHTYPE" speedFactor="1.17" vaporized=""/>
    <tripinfo id="52" depart="1745.00" departLane="a210_0" departPos="5.10" departSpeed="0.00" departDelay="0.43" arrival="1998.00" arrivalLane="b3[1]b_0" arrivalPos="239.77" arrivalSpeed="13.72" duration="253.00" routeLength="3022.50" waitingTime="12.00" waitingCount="1" stopTime="0.00" timeLoss="38.05" rerouteNo="0" devices="vehroute_52 tripinfo_52 fcd_52" vType="DEFAULT_VEHTYPE" speedFactor="1.02" vaporized=""/>
    <tripinfo id="49" depart="1710.00" departLane="a210_0" departPos="5.10" departSpeed="0.00" departDelay="0.41" arrival="2015.00" arrivalLane="b3[1]b_0" arrivalPos="239.77" arrivalSpeed="11.01" duration="305.00" routeLength="3030.71" waitingTime="20.00" waitingCount="2" stopTime="0.00" timeLoss="47.08" rerouteNo="0" devices="vehroute_49 tripinfo_49 fcd_49" vType="DEFAULT_VEHTYPE" speedFactor="0.85" vaporized=""/>
    <tripinfo id="50" depart="1722.00" departLane="a210_0" departPos="5.10" departSpeed="0.00" departDelay="0.36" arrival="2042.00" arrivalLane="b28_0" arrivalPos="188.87" arrivalSpeed="11.37" duration="320.00" routeLength="3141.35" waitingTime="14.00" waitingCount="2" stopTime="0.00" timeLoss="50.80" rerouteNo="0" devices="vehroute_50 tripinfo_50 fcd_50" vType="DEFAULT_VEHTYPE" speedFactor="0.85" vaporized=""/>
    <tripinfo id="53" depart="1805.00" departLane="a210_0" departPos="5.10" departSpeed="0.00" departDelay="0.85" arrival="2133.00" arrivalLane="b3[1]b_0" arrivalPos="239.77" arrivalSpeed="14.92" duration="328.00" routeLength="3030.71" waitingTime="97.00" waitingCount="2" stopTime="0.00" timeLoss="127.81" rerouteNo="0" devices="vehroute_53 tripinfo_53 fcd_53" vType="DEFAULT_VEHTYPE" speedFactor="1.10" vaporized=""/>
    <tripinfo id="54" depart="1822.00" departLane="a210_0" departPos="5.10" departSpeed="0.00" departDelay="0.01" arrival="2135.00" arrivalLane="b3[1]b_0" arrivalPos="239.77" arrivalSpeed="13.54" duration="313.00" routeLength="3022.50" waitingTime="68.00" waitingCount="2" stopTime="0.00" timeLoss="94.69" rerouteNo="0" devices="vehroute_54 tripinfo_54 fcd_54" vType="DEFAULT_VEHTYPE" speedFactor="1.00" vaporized=""/>
    <tripinfo id="55" depart="1825.00" departLane="a210_0" departPos="5.10" departSpeed="0.00" departDelay="0.38" arrival="2138.00" arrivalLane="b3[1]b_0" arrivalPos="239.77" arrivalSpeed="13.25" duration="313.00" routeLength="3030.71" waitingTime="67.00" waitingCount="2" stopTime="0.00" timeLoss="92.77" rerouteNo="0" devices="vehroute_55 tripinfo_55 fcd_55" vType="DEFAULT_VEHTYPE" speedFactor="1.00" vaporized=""/>
    <tripinfo id="56" depart="1836.00" departLane="a210_0" departPos="5.10" departSpeed="0.00" departDelay="0.99" arrival="2141.00" arrivalLane="b3[1]b_0" arrivalPos="239.77" arrivalSpeed="11.70" duration="305.00" routeLength="3022.50" waitingTime="34.00" waitingCount="2" stopTime="0.00" timeLoss="61.54" rerouteNo="0" devices="vehroute_56 tripinfo_56 fcd_56" vType="DEFAULT_VEHTYPE" speedFactor="0.90" vaporized=""/>
    <tripinfo id="57" depart="1917.00" departLane="a210_0" departPos="5.10" departSpeed="0.00" departDelay="0.07" arrival="2144.00" arrivalLane="b3[1]b_0" arrivalPos="239.77" arrivalSpeed="15.31" duration="227.00" routeLength="3030.71" waitingTime="13.00" waitingCount="2" stopTime="0.00" timeLoss="35.20" rerouteNo="0" devices="vehroute_57 tripinfo_57 fcd_57" vType="DEFAULT_VEHTYPE" speedFactor="1.14" vaporized=""/>
    <tripinfo id="60" depart="2040.00" departLane="a210_0" departPos="5.10" departSpeed="0.00" departDelay="0.33" arrival="2291.00" arrivalLane="b3[1]b_0" arrivalPos="239.77" arrivalSpeed="14.59" duration="251.00" routeLength="3025.46" waitingTime="30.00" waitingCount="1" stopTime="0.00" timeLoss="48.54" rerouteNo="0" devices="vehroute_60 tripinfo_60 fcd_60" vType="DEFAULT_VEHTYPE" speedFactor="1.08" vaporized=""/>
    <tripinfo id="58" depart="1944.00" departLane="a210_0" departPos="5.10" departSpeed="0.00" departDelay="0.96" arrival="2294.00" arrivalLane="b3[1]b_0" arrivalPos="239.77" arrivalSpeed="14.13" duration="350.00" routeLength="3030.71" waitingTime="108.00" waitingCount="2" stopTime="0.00" timeLoss="135.22" rerouteNo="0" devices="vehroute_58 tripinfo_58 fcd_58" vType="DEFAULT_VEHTYPE" speedFactor="1.02" vaporized=""/>
    <tripinfo id="59" depart="2032.00" departLane="a210_0" departPos="5.10" departSpeed="0.00" departDelay="0.01" arrival="2297.00" arrivalLane="b3[1]b_0" arrivalPos="239.77" arrivalSpeed="13.38" duration="265.00" routeLength="3030.71" waitingTime="14.00" waitingCount="1" stopTime="0.00" timeLoss="38.56" rerouteNo="0" devices="vehroute_59 tripinfo_59 fcd_59" vType="DEFAULT_VEHTYPE" speedFactor="0.97" vaporized=""/>
    <tripinfo id="61" depart="2063.00" departLane="a210_0" departPos="5.10" departSpeed="0.00" departDelay="0.05" arrival="2393.00" arrivalLane="b28_0" arrivalPos="188.87" arrivalSpeed="14.63" duration="330.00" routeLength="3141.35" waitingTime="78.00" waitingCount="4" stopTime="0.00" timeLoss="124.56" rerouteNo="0" devices="vehroute_61 tripinfo_61 fcd_61" vType="DEFAULT_VEHTYPE" speedFactor="1.12" vaporized=""/>
    <tripinfo id="62" depart="2069.00" departLane="a210_0" departPos="5.10" departSpeed="0.00" departDelay="0.49" arrival="2454.00" arrivalLane="b3[1]b_0" arrivalPos="239.77" arrivalSpeed="13.26" duration="385.00" routeLength="3027.75" waitingTime="132.00" waitingCount="4" stopTime="0.00" timeLoss="169.62" rerouteNo="0" devices="vehroute_62 tripinfo_62 fcd_62" vType="DEFAULT_VEHTYPE" speedFactor="1.02" vaporized=""/>
    <tripinfo id="63" depart="2072.00" departLane="a210_0" departPos="5.10" departSpeed="0.00" departDelay="1.41" arrival="2454.00" arrivalLane="b3[1]b_1" arrivalPos="239.77" arrivalSpeed="12.78" duration="382.00" routeLength="3025.46" waitingTime="126.00" waitingCount="3" stopTime="0.00" timeLoss="160.24" rerouteNo="0" devices="vehroute_63 tripinfo_63 fcd_63" vType="DEFAULT_VEHTYPE" speedFactor="0.99" vaporized=""/>
    <tripinfo id="65" depart="2170.00" departLane="a210_0" departPos="5.10" departSpeed="0.00" departDelay="0.81" arrival="2461.00" arrivalLane="b3[1]b_0" arrivalPos="239.77" arrivalSpeed="11.43" duration="291.00" routeLength="3030.71" waitingTime="18.00" waitingCount="1" stopTime="0.00" timeLoss="42.99" rerouteNo="0" devices="vehroute_65 tripinfo_65 fcd_65" vType="DEFAULT_VEHTYPE" speedFactor="0.88" vaporized=""/>
    <tripinfo id="64" depart="2140.00" departLane="a210_0" departPos="5.10" departSpeed="0.00" departDelay="0.55" arrival="2529.00" arrivalLane="b28_0" arrivalPos="188.87" arrivalSpeed="12.32" duration="389.00" routeLength="3141.35" waitingTime="99.00" waitingCount="4" stopTime="0.00" timeLoss="144.48" rerouteNo="0" devices="vehroute_64 tripinfo_64 fcd_64" vType="DEFAULT_VEHTYPE" speedFactor="0.94" vaporized=""/>
    <tripinfo id="67" depart="2191.00" departLane="a210_0" departPos="5.10" departSpeed="0.00" departDelay="0.45" arrival="2536.00" arrivalLane="b28_0" arrivalPos="188.87" arrivalSpeed="12.27" duration="345.00" routeLength="3141.35" waitingTime="42.00" waitingCount="3" stopTime="0.00" timeLoss="92.92" rerouteNo="0" devices="vehroute_67 tripinfo_67 fcd_67" vType="DEFAULT_VEHTYPE" speedFactor="0.91" vaporized=""/>
    <tripinfo id="68" depart="2231.00" departLane="a210_0" departPos="5.10" departSpeed="0.00" departDelay="0.81" arrival="2603.00" arrivalLane="b3[1]b_0" arrivalPos="239.77" arrivalSpeed="14.23" duration="372.00" routeLength="3030.71" waitingTime="127.00" waitingCount="4" stopTime="0.00" timeLoss="161.26" rerouteNo="0" devices="vehroute_68 tripinfo_68 fcd_68" vType="DEFAULT_VEHTYPE" speedFactor="1.04" vaporized=""/>