<?xml version="1.0" encoding="UTF-8"?>

<!-- generated on 2025-03-20 09:35:42 by Eclipse SUMO GUI Version 1.21.0
<sumoConfiguration xmlns:xsi="http://www.w3.org/2001/XMLSchema-instance" xsi:noNamespaceSchemaLocation="http://sumo.dlr.de/xsd/sumoConfiguration.xsd">

    <input>
        <net-file value="${STATICPATH}/joined_lanes.net.xml"/>
        <route-files value="${SIMULATIONPATH}/generatedRoutes.rou.xml"/>
        <additional-files value="${STATICPATH}/detectors.add.xml,${STATICPATH}/joined_vtypes.add.xml,${STATICPATH}/joined_tls.add.xml"/>
    </input>

    <output>
        <fcd-output value="${SIMULATIONPATH}/fcd.xml"/>
        <queue-output value="${SIMULATIONPATH}/queue.xml"/>
        <summary-output value="${SIMULATIONPATH}/summary.xml"/>
        <tripinfo-output value="${SIMULATIONPATH}/tripinfos.xml"/>
        <vehroute-output value="${SIMULATIONPATH}/vehroute.xml"/>
        <save-state.prefix value="C:\Users\fabio\Desktop\Sumo_Simulation\configs\state"/>
    </output>

    <processing>
        <ignore-junction-blocker value="1"/>
        <ignore-route-errors value="true"/>
        <time-to-teleport value="-1"/>
    </processing>

    <report>
        <log value="C:/Users/fabio/Desktop/sumo_log.txt"/>
        <no-step-log value="true"/>
    </report>

    <emissions>
        <phemlight-path value="C:\Users\fabio\Desktop\Sumo_Simulation\configs\./PHEMlight/"/>
    </emissions>

    <traci_server>
        <remote-port value="55879"/>
    </traci_server>

</sumoConfiguration>
-->

<fcd-export xmlns:xsi="http://www.w3.org/2001/XMLSchema-instance" xsi:noNamespaceSchemaLocation="http://sumo.dlr.de/xsd/fcd_file.xsd">
</fcd-export>
