<?xml version="1.0" encoding="UTF-8"?>

<!-- generated on 2025-03-21 18:03:44 by Eclipse SUMO sumo Version 1.21.0
<sumoConfiguration xmlns:xsi="http://www.w3.org/2001/XMLSchema-instance" xsi:noNamespaceSchemaLocation="http://sumo.dlr.de/xsd/sumoConfiguration.xsd">

    <input>
        <net-file value="${STATICPATH}/joined_lanes.net.xml"/>
        <route-files value="${SIMULATIONPATH}/generatedRoutes.rou.xml"/>
        <additional-files value="${STATICPATH}/detectors.add.xml,${STATICPATH}/joined_vtypes.add.xml,${STATICPATH}/joined_tls.add.xml"/>
    </input>

    <output>
        <fcd-output value="${SIMULATIONPATH}/fcd.xml"/>
        <queue-output value="${SIMULATIONPATH}/queue.xml"/>
        <summary-output value="${SIMULATIONPATH}/summary.xml"/>
        <tripinfo-output value="${SIMULATIONPATH}/tripinfos.xml"/>
        <vehroute-output value="${SIMULATIONPATH}/vehroute.xml"/>
        <save-state.prefix value="configs\state"/>
    </output>

    <processing>
        <ignore-junction-blocker value="1"/>
        <ignore-route-errors value="true"/>
        <time-to-teleport value="-1"/>
    </processing>

    <report>
        <log value="C:/Users/fabio/Desktop/sumo_log.txt"/>
        <no-step-log value="true"/>
    </report>

    <emissions>
        <phemlight-path value="configs\./PHEMlight/"/>
    </emissions>

    <traci_server>
        <remote-port value="60291"/>
    </traci_server>

</sumoConfiguration>
-->

<tripinfos xmlns:xsi="http://www.w3.org/2001/XMLSchema-instance" xsi:noNamespaceSchemaLocation="http://sumo.dlr.de/xsd/tripinfo_file.xsd">
    <tripinfo id="1" depart="5.00" departLane="a210_0" departPos="5.10" departSpeed="0.00" departDelay="0.55" arrival="259.00" arrivalLane="b10_0" arrivalPos="224.30" arrivalSpeed="12.39" duration="254.00" routeLength="2833.68" waitingTime="9.00" waitingCount="2" stopTime="0.00" timeLoss="35.91" rerouteNo="0" devices="vehroute_1 tripinfo_1 fcd_1" vType="DEFAULT_VEHTYPE" speedFactor="0.94" vaporized=""/>
    <tripinfo id="0" depart="2.00" departLane="a210_0" departPos="5.10" departSpeed="0.00" departDelay="0.80" arrival="279.00" arrivalLane="b11[0]_0" arrivalPos="90.93" arrivalSpeed="13.79" duration="277.00" routeLength="2879.67" waitingTime="34.00" waitingCount="4" stopTime="0.00" timeLoss="77.70" rerouteNo="0" devices="vehroute_0 tripinfo_0 fcd_0" vType="DEFAULT_VEHTYPE" speedFactor="1.06" vaporized=""/>
    <tripinfo id="3" depart="73.00" departLane="a210_0" departPos="5.10" departSpeed="0.00" departDelay="0.91" arrival="407.00" arrivalLane="b10_0" arrivalPos="224.30" arrivalSpeed="14.54" duration="334.00" routeLength="2833.68" waitingTime="107.00" waitingCount="4" stopTime="0.00" timeLoss="145.42" rerouteNo="0" devices="vehroute_3 tripinfo_3 fcd_3" vType="DEFAULT_VEHTYPE" speedFactor="1.08" vaporized=""/>
    <tripinfo id="2" depart="64.00" departLane="a210_0" departPos="5.10" departSpeed="0.00" departDelay="0.32" arrival="409.00" arrivalLane="b11[0]_0" arrivalPos="90.93" arrivalSpeed="13.21" duration="345.00" routeLength="2879.67" waitingTime="90.00" waitingCount="3" stopTime="0.00" timeLoss="135.45" rerouteNo="0" devices="vehroute_2 tripinfo_2 fcd_2" vType="DEFAULT_VEHTYPE" speedFactor="1.01" vaporized=""/>
    <tripinfo id="4" depart="83.00" departLane="a210_0" departPos="5.10" departSpeed="0.00" departDelay="0.58" arrival="412.00" arrivalLane="b11[0]_0" arrivalPos="90.93" arrivalSpeed="14.07" duration="329.00" routeLength="2879.67" waitingTime="85.00" waitingCount="3" stopTime="0.00" timeLoss="122.51" rerouteNo="0" devices="vehroute_4 tripinfo_4 fcd_4" vType="DEFAULT_VEHTYPE" speedFactor="1.03" vaporized=""/>
    <tripinfo id="6" depart="269.00" departLane="a210_0" departPos="5.10" departSpeed="0.00" departDelay="0.33" arrival="566.00" arrivalLane="b10_0" arrivalPos="224.30" arrivalSpeed="14.38" duration="297.00" routeLength="2830.72" waitingTime="70.00" waitingCount="3" stopTime="0.00" timeLoss="101.43" rerouteNo="0" devices="vehroute_6 tripinfo_6 fcd_6" vType="DEFAULT_VEHTYPE" speedFactor="1.05" vaporized=""/>
    <tripinfo id="5" depart="228.00" departLane="a210_0" departPos="5.10" departSpeed="0.00" departDelay="0.81" arrival="573.00" arrivalLane="b10_0" arrivalPos="224.30" arrivalSpeed="10.36" duration="345.00" routeLength="2833.68" waitingTime="65.00" waitingCount="3" stopTime="0.00" timeLoss="98.65" rerouteNo="0" devices="vehroute_5 tripinfo_5 fcd_5" vType="DEFAULT_VEHTYPE" speedFactor="0.83" vaporized=""/>
    <tripinfo id="9" depart="335.00" departLane="a210_0" departPos="5.10" departSpeed="0.00" departDelay="0.46" arrival="624.00" arrivalLane="b10_0" arrivalPos="224.30" arrivalSpeed="11.38" duration="289.00" routeLength="2833.68" waitingTime="28.00" waitingCount="1" stopTime="0.00" timeLoss="50.59" rerouteNo="0" devices="vehroute_9 tripinfo_9 fcd_9" vType="DEFAULT_VEHTYPE" speedFactor="0.86" vaporized=""/>
    <tripinfo id="7" depart="288.00" departLane="a210_0" departPos="5.10" departSpeed="0.00" departDelay="0.12" arrival="674.00" arrivalLane="b11[0]_0" arrivalPos="90.93" arrivalSpeed="11.77" duration="386.00" routeLength="2879.67" waitingTime="108.00" waitingCount="4" stopTime="0.00" timeLoss="147.21" rerouteNo="0" devices="vehroute_7 tripinfo_7 fcd_7" vType="DEFAULT_VEHTYPE" speedFactor="0.89" vaporized=""/>
    <tripinfo id="8" depart="320.00" departLane="a210_0" departPos="5.10" departSpeed="0.00" departDelay="0.44" arrival="676.00" arrivalLane="b11[0]_0" arrivalPos="90.93" arrivalSpeed="12.96" duration="356.00" routeLength="2879.67" waitingTime="78.00" waitingCount="5" stopTime="0.00" timeLoss="131.12" rerouteNo="0" devices="vehroute_8 tripinfo_8 fcd_8" vType="DEFAULT_VEHTYPE" speedFactor="0.94" vaporized=""/>
    <tripinfo id="10" depart="424.00" departLane="a210_0" departPos="5.10" departSpeed="0.00" departDelay="0.46" arrival="678.00" arrivalLane="b11[0]_0" arrivalPos="90.93" arrivalSpeed="14.95" duration="254.00" routeLength="2879.67" waitingTime="8.00" waitingCount="2" stopTime="0.00" timeLoss="60.37" rerouteNo="0" devices="vehroute_10 tripinfo_10 fcd_10" vType="DEFAULT_VEHTYPE" speedFactor="1.09" vaporized=""/>
    <tripinfo id="15" depart="509.00" departLane="a210_0" departPos="5.10" departSpeed="0.00" departDelay="0.40" arrival="758.00" arrivalLane="b10_0" arrivalPos="224.30" arrivalSpeed="11.95" duration="249.00" routeLength="2833.68" waitingTime="4.00" waitingCount="2" stopTime="0.00" timeLoss="28.49" rerouteNo="0" devices="vehroute_15 tripinfo_15 fcd_15" vType="DEFAULT_VEHTYPE" speedFactor="0.93" vaporized=""/>
    <tripinfo id="11" depart="432.00" departLane="a210_0" departPos="5.10" departSpeed="0.00" departDelay="0.62" arrival="795.00" arrivalLane="b11[0]_0" arrivalPos="90.93" arrivalSpeed="13.71" duration="363.00" routeLength="2879.67" waitingTime="119.00" waitingCount="4" stopTime="0.00" timeLoss="157.39" rerouteNo="0" devices="vehroute_11 tripinfo_11 fcd_11" vType="DEFAULT_VEHTYPE" speedFactor="1.03" vaporized=""/>
    <tripinfo id="12" depart="439.00" departLane="a210_0" departPos="5.10" departSpeed="0.00" departDelay="0.66" arrival="798.00" arrivalLane="b11[0]_0" arrivalPos="90.93" arrivalSpeed="14.48" duration="359.00" routeLength="2879.67" waitingTime="115.00" waitingCount="4" stopTime="0.00" timeLoss="155.65" rerouteNo="0" devices="vehroute_12 tripinfo_12 fcd_12" vType="DEFAULT_VEHTYPE" speedFactor="1.05" vaporized=""/>
    <tripinfo id="13" depart="442.00" departLane="a210_0" departPos="5.10" departSpeed="0.00" departDelay="2.67" arrival="799.00" arrivalLane="b11[0]_0" arrivalPos="90.93" arrivalSpeed="15.08" duration="357.00" routeLength="2879.67" waitingTime="109.00" waitingCount="4" stopTime="0.00" timeLoss="169.54" rerouteNo="0" devices="vehroute_13 tripinfo_13 fcd_13" vType="DEFAULT_VEHTYPE" speedFactor="1.12" vaporized=""/>
    <tripinfo id="14" depart="502.00" departLane="a210_0" departPos="5.10" departSpeed="0.00" departDelay="0.89" arrival="803.00" arrivalLane="b11[0]_0" arrivalPos="90.93" arrivalSpeed="13.44" duration="301.00" routeLength="2879.67" waitingTime="34.00" waitingCount="3" stopTime="0.00" timeLoss="87.60" rerouteNo="0" devices="vehroute_14 tripinfo_14 fcd_14" vType="DEFAULT_VEHTYPE" speedFactor="0.99" vaporized=""/>
    <tripinfo id="19" depart="614.00" departLane="a210_0" departPos="5.10" departSpeed="0.00" departDelay="0.28" arrival="912.00" arrivalLane="b10_0" arrivalPos="224.30" arrivalSpeed="14.92" duration="298.00" routeLength="2830.72" waitingTime="72.00" waitingCount="3" stopTime="0.00" timeLoss="121.21" rerouteNo="0" devices="vehroute_19 tripinfo_19 fcd_19" vType="DEFAULT_VEHTYPE" speedFactor="1.16" vaporized=""/>
    <tripinfo id="17" depart="574.00" departLane="a210_0" departPos="5.10" departSpeed="0.00" departDelay="0.51" arrival="917.00" arrivalLane="b10_0" arrivalPos="224.30" arrivalSpeed="12.60" duration="343.00" routeLength="2830.72" waitingTime="96.00" waitingCount="3" stopTime="0.00" timeLoss="125.41" rerouteNo="0" devices="vehroute_17 tripinfo_17 fcd_17" vType="DEFAULT_VEHTYPE" speedFactor="0.94" vaporized=""/>
    <tripinfo id="20" depart="617.00" departLane="a210_0" departPos="5.10" departSpeed="0.00" departDelay="2.61" arrival="918.00" arrivalLane="b11[0]_0" arrivalPos="90.93" arrivalSpeed="13.13" duration="301.00" routeLength="2879.67" waitingTime="53.00" waitingCount="5" stopTime="0.00" timeLoss="93.37" rerouteNo="0" devices="vehroute_20 tripinfo_20 fcd_20" vType="DEFAULT_VEHTYPE" speedFactor="1.02" vaporized=""/>
    <tripinfo id="18" depart="583.00" departLane="a210_0" departPos="5.10" departSpeed="0.00" departDelay="0.65" arrival="919.00" arrivalLane="b10_0" arrivalPos="224.30" arrivalSpeed="12.39" duration="336.00" routeLength="2833.68" waitingTime="86.00" waitingCount="3" stopTime="0.00" timeLoss="117.09" rerouteNo="0" devices="vehroute_18 tripinfo_18 fcd_18" vType="DEFAULT_VEHTYPE" speedFactor="0.94" vaporized=""/>
    <tripinfo id="16" depart="554.00" departLane="a210_0" departPos="5.10" departSpeed="0.00" departDelay="0.35" arrival="922.00" arrivalLane="b10_0" arrivalPos="224.30" arrivalSpeed="11.97" duration="368.00" routeLength="2833.68" waitingTime="95.00" waitingCount="4" stopTime="0.00" timeLoss="135.43" rerouteNo="0" devices="vehroute_16 tripinfo_16 fcd_16" vType="DEFAULT_VEHTYPE" speedFactor="0.88" vaporized=""/>
    <tripinfo id="21" depart="691.00" departLane="a210_0" departPos="5.10" departSpeed="0.00" departDelay="0.58" arrival="1042.00" arrivalLane="b11[0]_0" arrivalPos="90.93" arrivalSpeed="13.30" duration="351.00" routeLength="2879.67" waitingTime="94.00" waitingCount="6" stopTime="0.00" timeLoss="141.74" rerouteNo="0" devices="vehroute_21 tripinfo_21 fcd_21" vType="DEFAULT_VEHTYPE" speedFactor="1.01" vaporized=""/>
    <tripinfo id="22" depart="763.00" departLane="a210_0" departPos="5.10" departSpeed="0.00" departDelay="0.68" arrival="1082.00" arrivalLane="b10_0" arrivalPos="224.30" arrivalSpeed="12.30" duration="319.00" routeLength="2833.68" waitingTime="74.00" waitingCount="4" stopTime="0.00" timeLoss="109.34" rerouteNo="0" devices="vehroute_22 tripinfo_22 fcd_22" vType="DEFAULT_VEHTYPE" speedFactor="0.97" vaporized=""/>
    <tripinfo id="23" depart="766.00" departLane="a210_0" departPos="5.10" departSpeed="0.00" departDelay="2.86" arrival="1086.00" arrivalLane="b10_0" arrivalPos="224.30" arrivalSpeed="12.13" duration="320.00" routeLength="2830.72" waitingTime="62.00" waitingCount="3" stopTime="0.00" timeLoss="90.34" rerouteNo="0" devices="vehroute_23 tripinfo_23 fcd_23" vType="DEFAULT_VEHTYPE" speedFactor="0.89" vaporized=""/>
    <tripinfo id="26" depart="838.00" departLane="a210_0" departPos="5.10" departSpeed="0.00" departDelay="0.82" arrival="1088.00" arrivalLane="b10_0" arrivalPos="224.30" arrivalSpeed="11.87" duration="250.00" routeLength="2833.68" waitingTime="7.00" waitingCount="1" stopTime="0.00" timeLoss="26.88" rerouteNo="0" devices="vehroute_26 tripinfo_26 fcd_26" vType="DEFAULT_VEHTYPE" speedFactor="0.92" vaporized=""/>
    <tripinfo id="24" depart="806.00" departLane="a210_0" departPos="5.10" departSpeed="0.00" departDelay="0.99" arrival="1177.00" arrivalLane="b11[0]_0" arrivalPos="90.93" arrivalSpeed="10.74" duration="371.00" routeLength="2879.67" waitingTime="73.00" waitingCount="5" stopTime="0.00" timeLoss="114.91" rerouteNo="0" devices="vehroute_24 tripinfo_24 fcd_24" vType="DEFAULT_VEHTYPE" speedFactor="0.83" vaporized=""/>
    <tripinfo id="25" depart="819.00" departLane="a210_0" departPos="5.10" departSpeed="0.00" departDelay="0.51" arrival="1179.00" arrivalLane="b11[0]_0" arrivalPos="90.93" arrivalSpeed="10.93" duration="360.00" routeLength="2879.67" waitingTime="61.00" waitingCount="4" stopTime="0.00" timeLoss="117.71" rerouteNo="0" devices="vehroute_25 tripinfo_25 fcd_25" vType="DEFAULT_VEHTYPE" speedFactor="0.87" vaporized=""/>
    <tripinfo id="27" depart="861.00" departLane="a210_0" departPos="5.10" departSpeed="0.00" departDelay="0.40" arrival="1182.00" arrivalLane="b11[0]_0" arrivalPos="90.93" arrivalSpeed="12.78" duration="321.00" routeLength="2879.67" waitingTime="38.00" waitingCount="3" stopTime="0.00" timeLoss="97.08" rerouteNo="0" devices="vehroute_27 tripinfo_27 fcd_27" vType="DEFAULT_VEHTYPE" speedFactor="0.95" vaporized=""/>
    <tripinfo id="28" depart="878.00" departLane="a210_0" departPos="5.10" departSpeed="0.00" departDelay="0.84" arrival="1183.00" arrivalLane="b11[0]_0" arrivalPos="90.93" arrivalSpeed="14.64" duration="305.00" routeLength="2879.67" waitingTime="30.00" waitingCount="4" stopTime="0.00" timeLoss="117.60" rerouteNo="0" devices="vehroute_28 tripinfo_28 fcd_28" vType="DEFAULT_VEHTYPE" speedFactor="1.13" vaporized=""/>
    <tripinfo id="29" depart="926.00" departLane="a210_0" departPos="5.10" departSpeed="0.00" departDelay="0.63" arrival="1222.00" arrivalLane="b10_0" arrivalPos="224.30" arrivalSpeed="11.79" duration="296.00" routeLength="2833.68" waitingTime="45.00" waitingCount="3" stopTime="0.00" timeLoss="76.78" rerouteNo="0" devices="vehroute_29 tripinfo_29 fcd_29" vType="DEFAULT_VEHTYPE" speedFactor="0.93" vaporized=""/>
    <tripinfo id="30" depart="1000.00" departLane="a210_0" departPos="5.10" departSpeed="0.00" departDelay="0.09" arrival="1224.00" arrivalLane="b10_0" arrivalPos="224.30" arrivalSpeed="15.70" duration="224.00" routeLength="2830.72" waitingTime="23.00" waitingCount="2" stopTime="0.00" timeLoss="50.39" rerouteNo="0" devices="vehroute_30 tripinfo_30 fcd_30" vType="DEFAULT_VEHTYPE" speedFactor="1.18" vaporized=""/>
    <tripinfo id="31" depart="1007.00" departLane="a210_0" departPos="5.10" departSpeed="0.00" departDelay="0.07" arrival="1226.00" arrivalLane="b10_0" arrivalPos="224.30" arrivalSpeed="15.06" duration="219.00" routeLength="2833.68" waitingTime="21.00" waitingCount="1" stopTime="0.00" timeLoss="41.23" rerouteNo="0" devices="vehroute_31 tripinfo_31 fcd_31" vType="DEFAULT_VEHTYPE" speedFactor="1.15" vaporized=""/>
    <tripinfo id="32" depart="1071.00" departLane="a210_0" departPos="5.10" departSpeed="0.00" departDelay="0.52" arrival="1411.00" arrivalLane="b11[0]_0" arrivalPos="90.93" arrivalSpeed="12.76" duration="340.00" routeLength="2879.67" waitingTime="85.00" waitingCount="6" stopTime="0.00" timeLoss="130.73" rerouteNo="0" devices="vehroute_32 tripinfo_32 fcd_32" vType="DEFAULT_VEHTYPE" speedFactor="1.01" vaporized=""/>
    <tripinfo id="36" depart="1162.00" departLane="a210_0" departPos="5.10" departSpeed="0.00" departDelay="0.90" arrival="1411.00" arrivalLane="b10_0" arrivalPos="224.30" arrivalSpeed="12.60" duration="249.00" routeLength="2833.68" waitingTime="16.00" waitingCount="2" stopTime="0.00" timeLoss="38.48" rerouteNo="0" devices="vehroute_36 tripinfo_36 fcd_36" vType="DEFAULT_VEHTYPE" speedFactor="0.97" vaporized=""/>
    <tripinfo id="33" depart="1084.00" departLane="a210_0" departPos="5.10" departSpeed="0.00" departDelay="0.93" arrival="1413.00" arrivalLane="b11[0]_0" arrivalPos="90.93" arrivalSpeed="15.98" duration="329.00" routeLength="2879.67" waitingTime="81.00" waitingCount="5" stopTime="0.00" timeLoss="147.50" rerouteNo="0" devices="vehroute_33 tripinfo_33 fcd_33" vType="DEFAULT_VEHTYPE" speedFactor="1.17" vaporized=""/>
    <tripinfo id="34" depart="1130.00" departLane="a210_0" departPos="5.10" departSpeed="0.00" departDelay="0.58" arrival="1416.00" arrivalLane="b11[0]_0" arrivalPos="90.93" arrivalSpeed="13.75" duration="286.00" routeLength="2879.67" waitingTime="26.00" waitingCount="4" stopTime="0.00" timeLoss="74.40" rerouteNo="0" devices="vehroute_34 tripinfo_34 fcd_34" vType="DEFAULT_VEHTYPE" speedFactor="0.99" vaporized=""/>
    <tripinfo id="35" depart="1144.00" departLane="a210_0" departPos="5.10" departSpeed="0.00" departDelay="0.89" arrival="1419.00" arrivalLane="b11[0]_0" arrivalPos="90.93" arrivalSpeed="14.09" duration="275.00" routeLength="2879.67" waitingTime="15.00" waitingCount="2" stopTime="0.00" timeLoss="66.76" rerouteNo="0" devices="vehroute_35 tripinfo_35 fcd_35" vType="DEFAULT_VEHTYPE" speedFactor="1.02" vaporized=""/>
    <tripinfo id="37" depart="1231.00" departLane="a210_0" departPos="5.10" departSpeed="0.00" departDelay="0.97" arrival="1526.00" arrivalLane="b11[0]_0" arrivalPos="90.93" arrivalSpeed="15.20" duration="295.00" routeLength="2879.67" waitingTime="61.00" waitingCount="5" stopTime="0.00" timeLoss="116.15" rerouteNo="0" devices="vehroute_37 tripinfo_37 fcd_37" vType="DEFAULT_VEHTYPE" speedFactor="1.18" vaporized=""/>
    <tripinfo id="38" depart="1247.00" departLane="a210_0" departPos="5.10" departSpeed="0.00" departDelay="0.24" arrival="1534.00" arrivalLane="b10_0" arrivalPos="224.30" arrivalSpeed="15.14" duration="287.00" routeLength="2833.68" waitingTime="77.00" waitingCount="2" stopTime="0.00" timeLoss="101.66" rerouteNo="0" devices="vehroute_38 tripinfo_38 fcd_38" vType="DEFAULT_VEHTYPE" speedFactor="1.10" vaporized=""/>
    <tripinfo id="40" depart="1372.00" departLane="a210_0" departPos="5.10" departSpeed="0.00" departDelay="0.73" arrival="1655.00" arrivalLane="b11[0]_0" arrivalPos="90.93" arrivalSpeed="13.54" duration="283.00" routeLength="2879.67" waitingTime="35.00" waitingCount="5" stopTime="0.00" timeLoss="77.75" rerouteNo="0" devices="vehroute_40 tripinfo_40 fcd_40" vType="DEFAULT_VEHTYPE" speedFactor="1.03" vaporized=""/>
    <tripinfo id="39" depart="1314.00" departLane="a210_0" departPos="5.10" departSpeed="0.00" departDelay="0.73" arrival="1663.00" arrivalLane="b10_0" arrivalPos="224.30" arrivalSpeed="12.39" duration="349.00" routeLength="2833.68" waitingTime="81.00" waitingCount="4" stopTime="0.00" timeLoss="122.26" rerouteNo="0" devices="vehroute_39 tripinfo_39 fcd_39" vType="DEFAULT_VEHTYPE" speedFactor="0.90" vaporized=""/>
    <tripinfo id="42" depart="1392.00" departLane="a210_0" departPos="5.10" departSpeed="0.00" departDelay="0.74" arrival="1666.00" arrivalLane="b10_0" arrivalPos="224.30" arrivalSpeed="14.57" duration="274.00" routeLength="2830.72" waitingTime="63.00" waitingCount="2" stopTime="0.00" timeLoss="87.04" rerouteNo="0" devices="vehroute_42 tripinfo_42 fcd_42" vType="DEFAULT_VEHTYPE" speedFactor="1.09" vaporized=""/>
    <tripinfo id="43" depart="1408.00" departLane="a210_0" departPos="5.10" departSpeed="0.00" departDelay="0.25" arrival="1673.00" arrivalLane="b10_0" arrivalPos="224.30" arrivalSpeed="13.35" duration="265.00" routeLength="2833.68" waitingTime="38.00" waitingCount="3" stopTime="0.00" timeLoss="68.11" rerouteNo="0" devices="vehroute_43 tripinfo_43 fcd_43" vType="DEFAULT_VEHTYPE" speedFactor="1.04" vaporized=""/>
    <tripinfo id="44" depart="1430.00" departLane="a210_0" departPos="5.10" departSpeed="0.00" departDelay="0.16" arrival="1675.00" arrivalLane="b10_0" arrivalPos="224.30" arrivalSpeed="13.21" duration="245.00" routeLength="2830.72" waitingTime="16.00" waitingCount="2" stopTime="0.00" timeLoss="49.15" rerouteNo="0" devices="vehroute_44 tripinfo_44 fcd_44" vType="DEFAULT_VEHTYPE" speedFactor="1.04" vaporized=""/>
    <tripinfo id="41" depart="1378.00" departLane="a210_0" departPos="5.10" departSpeed="0.00" departDelay="0.91" arrival="1681.00" arrivalLane="b10_0" arrivalPos="224.30" arrivalSpeed="13.17" duration="303.00" routeLength="2833.68" waitingTime="60.00" waitingCount="3" stopTime="0.00" timeLoss="88.80" rerouteNo="0" devices="vehroute_41 tripinfo_41 fcd_41" vType="DEFAULT_VEHTYPE" speedFactor="0.96" vaporized=""/>
    <tripinfo id="45" depart="1475.00" departLane="a210_0" departPos="5.10" departSpeed="0.00" departDelay="0.88" arrival="1776.00" arrivalLane="b11[0]_0" arrivalPos="90.93" arrivalSpeed="13.82" duration="301.00" routeLength="2879.67" waitingTime="63.00" waitingCount="4" stopTime="0.00" timeLoss="106.13" rerouteNo="0" devices="vehroute_45 tripinfo_45 fcd_45" vType="DEFAULT_VEHTYPE" speedFactor="1.09" vaporized=""/>
    <tripinfo id="46" depart="1522.00" departLane="a210_0" departPos="5.10" departSpeed="0.00" departDelay="0.32" arrival="1856.00" arrivalLane="b10_0" arrivalPos="224.30" arrivalSpeed="13.35" duration="334.00" routeLength="2833.68" waitingTime="91.00" waitingCount="4" stopTime="0.00" timeLoss="128.71" rerouteNo="0" devices="vehroute_46 tripinfo_46 fcd_46" vType="DEFAULT_VEHTYPE" speedFactor="1.00" vaporized=""/>
    <tripinfo id="47" depart="1550.00" departLane="a210_0" departPos="5.10" departSpeed="0.00" departDelay="0.79" arrival="1909.00" arrivalLane="b11[0]_0" arrivalPos="90.93" arrivalSpeed="11.55" duration="359.00" routeLength="2879.67" waitingTime="87.00" waitingCount="4" stopTime="0.00" timeLoss="124.19" rerouteNo="0" devices="vehroute_47 tripinfo_47 fcd_47" vType="DEFAULT_VEHTYPE" speedFactor="0.90" vaporized=""/>
    <tripinfo id="51" depart="1745.00" departLane="a210_0" departPos="5.10" departSpeed="0.00" departDelay="0.43" arrival="2017.00" arrivalLane="b10_0" arrivalPos="224.30" arrivalSpeed="15.68" duration="272.00" routeLength="2833.68" waitingTime="71.00" waitingCount="2" stopTime="0.00" timeLoss="96.72" rerouteNo="0" devices="vehroute_51 tripinfo_51 fcd_51" vType="DEFAULT_VEHTYPE" speedFactor="1.17" vaporized=""/>
    <tripinfo id="48" depart="1710.00" departLane="a210_0" departPos="5.10" departSpeed="0.00" departDelay="0.41" arrival="2024.00" arrivalLane="b10_0" arrivalPos="224.30" arrivalSpeed="11.99" duration="314.00" routeLength="2833.68" waitingTime="43.00" waitingCount="4" stopTime="0.00" timeLoss="80.77" rerouteNo="0" devices="vehroute_48 tripinfo_48 fcd_48" vType="DEFAULT_VEHTYPE" speedFactor="0.88" vaporized=""/>
    <tripinfo id="50" depart="1726.00" departLane="a210_0" departPos="5.10" departSpeed="0.00" departDelay="0.32" arrival="2038.00" arrivalLane="b10_0" arrivalPos="224.30" arrivalSpeed="11.59" duration="312.00" routeLength="2833.68" waitingTime="48.00" waitingCount="2" stopTime="0.00" timeLoss="72.33" rerouteNo="0" devices="vehroute_50 tripinfo_50 fcd_50" vType="DEFAULT_VEHTYPE" speedFactor="0.85" vaporized=""/>
    <tripinfo id="53" depart="1822.00" departLane="a210_0" departPos="5.10" departSpeed="0.00" departDelay="0.01" arrival="2148.00" arrivalLane="b10_0" arrivalPos="224.30" arrivalSpeed="14.01" duration="326.00" routeLength="2830.72" waitingTime="105.00" waitingCount="4" stopTime="0.00" timeLoss="139.80" rerouteNo="0" devices="vehroute_53 tripinfo_53 fcd_53" vType="DEFAULT_VEHTYPE" speedFactor="1.10" vaporized=""/>
    <tripinfo id="52" depart="1805.00" departLane="a210_0" departPos="5.10" departSpeed="0.00" departDelay="0.85" arrival="2151.00" arrivalLane="b10_0" arrivalPos="224.30" arrivalSpeed="13.39" duration="346.00" routeLength="2833.68" waitingTime="106.00" waitingCount="5" stopTime="0.00" timeLoss="144.89" rerouteNo="0" devices="vehroute_52 tripinfo_52 fcd_52" vType="DEFAULT_VEHTYPE" speedFactor="1.02" vaporized=""/>
    <tripinfo id="55" depart="1836.00" departLane="a210_0" departPos="5.10" departSpeed="0.00" departDelay="0.99" arrival="2154.00" arrivalLane="b10_0" arrivalPos="224.30" arrivalSpeed="13.68" duration="318.00" routeLength="2833.68" waitingTime="76.00" waitingCount="3" stopTime="0.00" timeLoss="112.31" rerouteNo="0" devices="vehroute_55 tripinfo_55 fcd_55" vType="DEFAULT_VEHTYPE" speedFactor="1.00" vaporized=""/>
    <tripinfo id="49" depart="1722.00" departLane="a210_0" departPos="5.10" departSpeed="0.00" departDelay="0.36" arrival="2162.00" arrivalLane="b11[0]_0" arrivalPos="90.93" arrivalSpeed="11.02" duration="440.00" routeLength="2879.67" waitingTime="147.00" waitingCount="5" stopTime="0.00" timeLoss="190.89" rerouteNo="0" devices="vehroute_49 tripinfo_49 fcd_49" vType="DEFAULT_VEHTYPE" speedFactor="0.85" vaporized=""/>
    <tripinfo id="54" depart="1825.00" departLane="a210_0" departPos="5.10" departSpeed="0.00" departDelay="0.38" arrival="2163.00" arrivalLane="b11[0]_0" arrivalPos="90.93" arrivalSpeed="12.76" duration="338.00" routeLength="2879.67" waitingTime="68.00" waitingCount="3" stopTime="0.00" timeLoss="127.22" rerouteNo="0" devices="vehroute_54 tripinfo_54 fcd_54" vType="DEFAULT_VEHTYPE" speedFactor="1.00" vaporized=""/>
    <tripinfo id="57" depart="1944.00" departLane="a210_0" departPos="5.10" departSpeed="0.00" departDelay="0.96" arrival="2265.00" arrivalLane="b11[0]_0" arrivalPos="90.93" arrivalSpeed="14.78" duration="321.00" routeLength="2879.67" waitingTime="96.00" waitingCount="4" stopTime="0.00" timeLoss="136.67" rerouteNo="0" devices="vehroute_57 tripinfo_57 fcd_57" vType="DEFAULT_VEHTYPE" speedFactor="1.14" vaporized=""/>
    <tripinfo id="59" depart="2040.00" departLane="a210_0" departPos="5.10" departSpeed="0.00" departDelay="0.33" arrival="2305.00" arrivalLane="b10_0" arrivalPos="224.30" arrivalSpeed="13.46" duration="265.00" routeLength="2833.68" waitingTime="30.00" waitingCount="1" stopTime="0.00" timeLoss="53.68" rerouteNo="0" devices="vehroute_59 tripinfo_59 fcd_59" vType="DEFAULT_VEHTYPE" speedFactor="0.97" vaporized=""/>
    <tripinfo id="56" depart="1917.00" departLane="a210_0" departPos="5.10" departSpeed="0.00" departDelay="0.07" arrival="2309.00" arrivalLane="b10_0" arrivalPos="224.30" arrivalSpeed="11.87" duration="392.00" routeLength="2833.68" waitingTime="126.00" waitingCount="5" stopTime="0.00" timeLoss="164.16" rerouteNo="0" devices="vehroute_56 tripinfo_56 fcd_56" vType="DEFAULT_VEHTYPE" speedFactor="0.90" vaporized=""/>
    <tripinfo id="58" depart="2032.00" departLane="a210_0" departPos="5.10" departSpeed="0.00" departDelay="0.01" arrival="2393.00" arrivalLane="b11[0]_0" arrivalPos="90.93" arrivalSpeed="13.27" duration="361.00" routeLength="2879.67" waitingTime="103.00" waitingCount="6" stopTime="0.00" timeLoss="154.81" rerouteNo="0" devices="vehroute_58 tripinfo_58 fcd_58" vType="DEFAULT_VEHTYPE" speedFactor="1.02" vaporized=""/>
    <tripinfo id="61" depart="2069.00" departLane="a210_0" departPos="5.10" departSpeed="0.00" departDelay="0.49" arrival="2395.00" arrivalLane="b11[0]_0" arrivalPos="90.93" arrivalSpeed="14.72" duration="326.00" routeLength="2879.67" waitingTime="83.00" waitingCount="5" stopTime="0.00" timeLoss="136.49" rerouteNo="0" devices="vehroute_61 tripinfo_61 fcd_61" vType="DEFAULT_VEHTYPE" speedFactor="1.12" vaporized=""/>
    <tripinfo id="60" depart="2063.00" departLane="a210_0" departPos="5.10" departSpeed="0.00" departDelay="0.05" arrival="2442.00" arrivalLane="b10_0" arrivalPos="224.30" arrivalSpeed="13.85" duration="379.00" routeLength="2830.72" waitingTime="156.00" waitingCount="4" stopTime="0.00" timeLoss="189.87" rerouteNo="0" devices="vehroute_60 tripinfo_60 fcd_60" vType="DEFAULT_VEHTYPE" speedFactor="1.08" vaporized=""/>
    <tripinfo id="62" depart="2072.00" departLane="a210_0" departPos="5.10" departSpeed="0.00" departDelay="1.41" arrival="2445.00" arrivalLane="b10_0" arrivalPos="224.30" arrivalSpeed="14.00" duration="373.00" routeLength="2833.68" waitingTime="140.00" waitingCount="4" stopTime="0.00" timeLoss="171.80" rerouteNo="0" devices="vehroute_62 tripinfo_62 fcd_62" vType="DEFAULT_VEHTYPE" speedFactor="1.02" vaporized=""/>
    <tripinfo id="63" depart="2140.00" departLane="a210_0" departPos="5.10" departSpeed="0.00" departDelay="0.55" arrival="2448.00" arrivalLane="b10_0" arrivalPos="224.30" arrivalSpeed="13.45" duration="308.00" routeLength="2833.68" waitingTime="65.00" waitingCount="4" stopTime="0.00" timeLoss="100.40" rerouteNo="0" devices="vehroute_63 tripinfo_63 fcd_63" vType="DEFAULT_VEHTYPE" speedFactor="0.99" vaporized=""/>
    <tripinfo id="64" depart="2170.00" departLane="a210_0" departPos="5.10" departSpeed="0.00" departDelay="0.81" arrival="2522.00" arrivalLane="b11[0]_0" arrivalPos="90.93" arrivalSpeed="12.94" duration="352.00" routeLength="2879.67" waitingTime="82.00" waitingCount="5" stopTime="0.00" timeLoss="126.35" rerouteNo="0" devices="vehroute_64 tripinfo_64 fcd_64" vType="DEFAULT_VEHTYPE" speedFactor="0.94" vaporized=""/>
    <tripinfo id="65" depart="2183.00" departLane="a210_0" departPos="5.10" departSpeed="0.00" departDelay="0.06" arrival="2525.00" arrivalLane="b11[0]_0" arrivalPos="90.93" arrivalSpeed="11.63" duration="342.00" routeLength="2879.67" waitingTime="51.00" waitingCount="4" stopTime="0.00" timeLoss="101.93" rerouteNo="0" devices="vehroute_65 tripinfo_65 fcd_65" vType="DEFAULT_VEHTYPE" speedFactor="0.88" vaporized=""/>
    <tripinfo id="67" depart="2231.00" departLane="a210_0" departPos="5.10" departSpeed="0.00" departDelay="0.81" arrival="2527.00" arrivalLane="b11[0]_0" arrivalPos="90.93" arrivalSpeed="12.05" duration="296.00" routeLength="2879.67" waitingTime="17.00" waitingCount="3" stopTime="0.00" timeLoss="65.55" rerouteNo="0" devices="vehroute_67 tripinfo_67 fcd_67" vType="DEFAULT_VEHTYPE" speedFactor="0.91" vaporized=""/>
    <tripinfo id="68" depart="2261.00" departLane="a210_0" departPos="5.10" departSpeed="0.00" departDelay="0.38" arrival="2529.00" arrivalLane="b11[0]_0" arrivalPos="90.93" arrivalSpeed="13.60" duration="268.00" routeLength="2879.67" waitingTime="12.00" waitingCount="2" stopTime="0.00" timeLoss="64.39" rerouteNo="0" devices="vehroute_68 tripinfo_68 fcd_68" vType="DEFAULT_VEHTYPE" speedFactor="1.04" vaporized=""/>