<?xml version="1.0" encoding="UTF-8"?>

<!-- generated on 2025-03-21 18:03:44 by Eclipse SUMO sumo Version 1.21.0
<sumoConfiguration xmlns:xsi="http://www.w3.org/2001/XMLSchema-instance" xsi:noNamespaceSchemaLocation="http://sumo.dlr.de/xsd/sumoConfiguration.xsd">

    <input>
        <net-file value="${STATICPATH}/joined_lanes.net.xml"/>
        <route-files value="${SIMULATIONPATH}/generatedRoutes.rou.xml"/>
        <additional-files value="${STATICPATH}/detectors.add.xml,${STATICPATH}/joined_vtypes.add.xml,${STATICPATH}/joined_tls.add.xml"/>
    </input>

    <output>
        <fcd-output value="${SIMULATIONPATH}/fcd.xml"/>
        <queue-output value="${SIMULATIONPATH}/queue.xml"/>
        <summary-output value="${SIMULATIONPATH}/summary.xml"/>
        <tripinfo-output value="${SIMULATIONPATH}/tripinfos.xml"/>
        <vehroute-output value="${SIMULATIONPATH}/vehroute.xml"/>
        <save-state.prefix value="configs\state"/>
    </output>

    <processing>
        <ignore-junction-blocker value="1"/>
        <ignore-route-errors value="true"/>
        <time-to-teleport value="-1"/>
    </processing>

    <report>
        <log value="C:/Users/fabio/Desktop/sumo_log.txt"/>
        <no-step-log value="true"/>
    </report>

    <emissions>
        <phemlight-path value="configs\./PHEMlight/"/>
    </emissions>

    <traci_server>
        <remote-port value="60291"/>
    </traci_server>

</sumoConfiguration>
-->

<routes xmlns:xsi="http://www.w3.org/2001/XMLSchema-instance" xsi:noNamespaceSchemaLocation="http://sumo.dlr.de/xsd/routes_file.xsd">
    <vehicle id="1" depart="5.00" arrival="259.00">
        <route edges="a210 a43[0] a43[1] a201 a201c a204a[0] a124 b12 b56[0] b56[1][0] b56[1][1] b5[1][0]+66 b5[1][1][1] b8 b10"/>
    </vehicle>

    <vehicle id="0" depart="2.00" arrival="279.00">
        <route edges="a210 a43[0] a43[1] a115 a110 a185 a92 a90 am91 a88 a187 a191 a17 a71 b38[0] b38[0]a b37 b26 b26.-170 b17[0] b17[1] b11[0]"/>
    </vehicle>

    <vehicle id="3" depart="73.00" arrival="407.00">
        <route edges="a210 a43[0] a43[1] a201 a201c a204a[0] a124 b12 b56[0] b56[1][0] b56[1][1] b5[1][0]+66 b5[1][1][1] b8 b10"/>
    </vehicle>

    <vehicle id="2" depart="64.00" arrival="409.00">
        <route edges="a210 a43[0] a43[1] a115 a110 a185 a92 a90 am91 a88 a187 a191 a17 a71 b38[0] b38[0]a b37 b26 b26.-170 b17[0] b17[1] b11[0]"/>
    </vehicle>

    <vehicle id="4" depart="83.00" arrival="412.00">
        <route edges="a210 a43[0] a43[1] a115 a110 a185 a92 a90 am91 a88 a187 a191 a17 a71 b38[0] b38[0]a b37 b26 b26.-170 b17[0] b17[1] b11[0]"/>
    </vehicle>

    <vehicle id="6" depart="269.00" arrival="566.00">
        <route edges="a210 a43[0] a43[1] a201 a201c a204a[0] a124 b12 b56[0] b56[1][0] b56[1][1] b5[1][0]+66 b5[1][1][1] b8 b10"/>
    </vehicle>

    <vehicle id="5" depart="228.00" arrival="573.00">
        <route edges="a210 a43[0] a43[1] a201 a201c a204a[0] a124 b12 b56[0] b56[1][0] b56[1][1] b5[1][0]+66 b5[1][1][1] b8 b10"/>
    </vehicle>

    <vehicle id="9" depart="335.00" arrival="624.00">
        <route edges="a210 a43[0] a43[1] a201 a201c a204a[0] a124 b12 b56[0] b56[1][0] b56[1][1] b5[1][0]+66 b5[1][1][1] b8 b10"/>
    </vehicle>

    <vehicle id="7" depart="288.00" arrival="674.00">
        <route edges="a210 a43[0] a43[1] a115 a110 a185 a92 a90 am91 a88 a187 a191 a17 a71 b38[0] b38[0]a b37 b26 b26.-170 b17[0] b17[1] b11[0]"/>
    </vehicle>

    <vehicle id="8" depart="320.00" arrival="676.00">
        <route edges="a210 a43[0] a43[1] a115 a110 a185 a92 a90 am91 a88 a187 a191 a17 a71 b38[0] b38[0]a b37 b26 b26.-170 b17[0] b17[1] b11[0]"/>
    </vehicle>

    <vehicle id="10" depart="424.00" arrival="678.00">
        <route edges="a210 a43[0] a43[1] a115 a110 a185 a92 a90 am91 a88 a187 a191 a17 a71 b38[0] b38[0]a b37 b26 b26.-170 b17[0] b17[1] b11[0]"/>
    </vehicle>

    <vehicle id="15" depart="509.00" arrival="758.00">
        <route edges="a210 a43[0] a43[1] a201 a201c a204a[0] a124 b12 b56[0] b56[1][0] b56[1][1] b5[1][0]+66 b5[1][1][1] b8 b10"/>
    </vehicle>

    <vehicle id="11" depart="432.00" arrival="795.00">
        <route edges="a210 a43[0] a43[1] a115 a110 a185 a92 a90 am91 a88 a187 a191 a17 a71 b38[0] b38[0]a b37 b26 b26.-170 b17[0] b17[1] b11[0]"/>
    </vehicle>

    <vehicle id="12" depart="439.00" arrival="798.00">
        <route edges="a210 a43[0] a43[1] a115 a110 a185 a92 a90 am91 a88 a187 a191 a17 a71 b38[0] b38[0]a b37 b26 b26.-170 b17[0] b17[1] b11[0]"/>
    </vehicle>

    <vehicle id="13" depart="442.00" arrival="799.00">
        <route edges="a210 a43[0] a43[1] a115 a110 a185 a92 a90 am91 a88 a187 a191 a17 a71 b38[0] b38[0]a b37 b26 b26.-170 b17[0] b17[1] b11[0]"/>
    </vehicle>

    <vehicle id="14" depart="502.00" arrival="803.00">
        <route edges="a210 a43[0] a43[1] a115 a110 a185 a92 a90 am91 a88 a187 a191 a17 a71 b38[0] b38[0]a b37 b26 b26.-170 b17[0] b17[1] b11[0]"/>
    </vehicle>

    <vehicle id="19" depart="614.00" arrival="912.00">
        <route edges="a210 a43[0] a43[1] a201 a201c a204a[0] a124 b12 b56[0] b56[1][0] b56[1][1] b5[1][0]+66 b5[1][1][1] b8 b10"/>
    </vehicle>

    <vehicle id="17" depart="574.00" arrival="917.00">
        <route edges="a210 a43[0] a43[1] a201 a201c a204a[0] a124 b12 b56[0] b56[1][0] b56[1][1] b5[1][0]+66 b5[1][1][1] b8 b10"/>
    </vehicle>

    <vehicle id="20" depart="617.00" arrival="918.00">
        <route edges="a210 a43[0] a43[1] a115 a110 a185 a92 a90 am91 a88 a187 a191 a17 a71 b38[0] b38[0]a b37 b26 b26.-170 b17[0] b17[1] b11[0]"/>
    </vehicle>

    <vehicle id="18" depart="583.00" arrival="919.00">
        <route edges="a210 a43[0] a43[1] a201 a201c a204a[0] a124 b12 b56[0] b56[1][0] b56[1][1] b5[1][0]+66 b5[1][1][1] b8 b10"/>
    </vehicle>

    <vehicle id="16" depart="554.00" arrival="922.00">
        <route edges="a210 a43[0] a43[1] a201 a201c a204a[0] a124 b12 b56[0] b56[1][0] b56[1][1] b5[1][0]+66 b5[1][1][1] b8 b10"/>
    </vehicle>

    <vehicle id="21" depart="691.00" arrival="1042.00">
        <route edges="a210 a43[0] a43[1] a115 a110 a185 a92 a90 am91 a88 a187 a191 a17 a71 b38[0] b38[0]a b37 b26 b26.-170 b17[0] b17[1] b11[0]"/>
    </vehicle>

    <vehicle id="22" depart="763.00" arrival="1082.00">
        <route edges="a210 a43[0] a43[1] a201 a201c a204a[0] a124 b12 b56[0] b56[1][0] b56[1][1] b5[1][0]+66 b5[1][1][1] b8 b10"/>
    </vehicle>

    <vehicle id="23" depart="766.00" arrival="1086.00">
        <route edges="a210 a43[0] a43[1] a201 a201c a204a[0] a124 b12 b56[0] b56[1][0] b56[1][1] b5[1][0]+66 b5[1][1][1] b8 b10"/>
    </vehicle>

    <vehicle id="26" depart="838.00" arrival="1088.00">
        <route edges="a210 a43[0] a43[1] a201 a201c a204a[0] a124 b12 b56[0] b56[1][0] b56[1][1] b5[1][0]+66 b5[1][1][1] b8 b10"/>
    </vehicle>

    <vehicle id="24" depart="806.00" arrival="1177.00">
        <route edges="a210 a43[0] a43[1] a115 a110 a185 a92 a90 am91 a88 a187 a191 a17 a71 b38[0] b38[0]a b37 b26 b26.-170 b17[0] b17[1] b11[0]"/>
    </vehicle>

    <vehicle id="25" depart="819.00" arrival="1179.00">
        <route edges="a210 a43[0] a43[1] a115 a110 a185 a92 a90 am91 a88 a187 a191 a17 a71 b38[0] b38[0]a b37 b26 b26.-170 b17[0] b17[1] b11[0]"/>
    </vehicle>

    <vehicle id="27" depart="861.00" arrival="1182.00">
        <route edges="a210 a43[0] a43[1] a115 a110 a185 a92 a90 am91 a88 a187 a191 a17 a71 b38[0] b38[0]a b37 b26 b26.-170 b17[0] b17[1] b11[0]"/>
    </vehicle>

    <vehicle id="28" depart="878.00" arrival="1183.00">
        <route edges="a210 a43[0] a43[1] a115 a110 a185 a92 a90 am91 a88 a187 a191 a17 a71 b38[0] b38[0]a b37 b26 b26.-170 b17[0] b17[1] b11[0]"/>
    </vehicle>

    <vehicle id="29" depart="926.00" arrival="1222.00">
        <route edges="a210 a43[0] a43[1] a201 a201c a204a[0] a124 b12 b56[0] b56[1][0] b56[1][1] b5[1][0]+66 b5[1][1][1] b8 b10"/>
    </vehicle>

    <vehicle id="30" depart="1000.00" arrival="1224.00">
        <route edges="a210 a43[0] a43[1] a201 a201c a204a[0] a124 b12 b56[0] b56[1][0] b56[1][1] b5[1][0]+66 b5[1][1][1] b8 b10"/>
    </vehicle>

    <vehicle id="31" depart="1007.00" arrival="1226.00">
        <route edges="a210 a43[0] a43[1] a201 a201c a204a[0] a124 b12 b56[0] b56[1][0] b56[1][1] b5[1][0]+66 b5[1][1][1] b8 b10"/>
    </vehicle>

    <vehicle id="32" depart="1071.00" arrival="1411.00">
        <route edges="a210 a43[0] a43[1] a115 a110 a185 a92 a90 am91 a88 a187 a191 a17 a71 b38[0] b38[0]a b37 b26 b26.-170 b17[0] b17[1] b11[0]"/>
    </vehicle>

    <vehicle id="36" depart="1162.00" arrival="1411.00">
        <route edges="a210 a43[0] a43[1] a201 a201c a204a[0] a124 b12 b56[0] b56[1][0] b56[1][1] b5[1][0]+66 b5[1][1][1] b8 b10"/>
    </vehicle>

    <vehicle id="33" depart="1084.00" arrival="1413.00">
        <route edges="a210 a43[0] a43[1] a115 a110 a185 a92 a90 am91 a88 a187 a191 a17 a71 b38[0] b38[0]a b37 b26 b26.-170 b17[0] b17[1] b11[0]"/>
    </vehicle>

    <vehicle id="34" depart="1130.00" arrival="1416.00">
        <route edges="a210 a43[0] a43[1] a115 a110 a185 a92 a90 am91 a88 a187 a191 a17 a71 b38[0] b38[0]a b37 b26 b26.-170 b17[0] b17[1] b11[0]"/>
    </vehicle>

    <vehicle id="35" depart="1144.00" arrival="1419.00">
        <route edges="a210 a43[0] a43[1] a115 a110 a185 a92 a90 am91 a88 a187 a191 a17 a71 b38[0] b38[0]a b37 b26 b26.-170 b17[0] b17[1] b11[0]"/>
    </vehicle>

    <vehicle id="37" depart="1231.00" arrival="1526.00">
        <route edges="a210 a43[0] a43[1] a115 a110 a185 a92 a90 am91 a88 a187 a191 a17 a71 b38[0] b38[0]a b37 b26 b26.-170 b17[0] b17[1] b11[0]"/>
    </vehicle>

    <vehicle id="38" depart="1247.00" arrival="1534.00">
        <route edges="a210 a43[0] a43[1] a201 a201c a204a[0] a124 b12 b56[0] b56[1][0] b56[1][1] b5[1][0]+66 b5[1][1][1] b8 b10"/>
    </vehicle>

    <vehicle id="40" depart="1372.00" arrival="1655.00">
        <route edges="a210 a43[0] a43[1] a115 a110 a185 a92 a90 am91 a88 a187 a191 a17 a71 b38[0] b38[0]a b37 b26 b26.-170 b17[0] b17[1] b11[0]"/>
    </vehicle>

    <vehicle id="39" depart="1314.00" arrival="1663.00">
        <route edges="a210 a43[0] a43[1] a201 a201c a204a[0] a124 b12 b56[0] b56[1][0] b56[1][1] b5[1][0]+66 b5[1][1][1] b8 b10"/>
    </vehicle>

    <vehicle id="42" depart="1392.00" arrival="1666.00">
        <route edges="a210 a43[0] a43[1] a201 a201c a204a[0] a124 b12 b56[0] b56[1][0] b56[1][1] b5[1][0]+66 b5[1][1][1] b8 b10"/>
    </vehicle>

    <vehicle id="43" depart="1408.00" arrival="1673.00">
        <route edges="a210 a43[0] a43[1] a201 a201c a204a[0] a124 b12 b56[0] b56[1][0] b56[1][1] b5[1][0]+66 b5[1][1][1] b8 b10"/>
    </vehicle>

    <vehicle id="44" depart="1430.00" arrival="1675.00">
        <route edges="a210 a43[0] a43[1] a201 a201c a204a[0] a124 b12 b56[0] b56[1][0] b56[1][1] b5[1][0]+66 b5[1][1][1] b8 b10"/>
    </vehicle>

    <vehicle id="41" depart="1378.00" arrival="1681.00">
        <route edges="a210 a43[0] a43[1] a201 a201c a204a[0] a124 b12 b56[0] b56[1][0] b56[1][1] b5[1][0]+66 b5[1][1][1] b8 b10"/>
    </vehicle>

    <vehicle id="45" depart="1475.00" arrival="1776.00">
        <route edges="a210 a43[0] a43[1] a115 a110 a185 a92 a90 am91 a88 a187 a191 a17 a71 b38[0] b38[0]a b37 b26 b26.-170 b17[0] b17[1] b11[0]"/>
    </vehicle>

    <vehicle id="46" depart="1522.00" arrival="1856.00">
        <route edges="a210 a43[0] a43[1] a201 a201c a204a[0] a124 b12 b56[0] b56[1][0] b56[1][1] b5[1][0]+66 b5[1][1][1] b8 b10"/>
    </vehicle>

    <vehicle id="47" depart="1550.00" arrival="1909.00">
        <route edges="a210 a43[0] a43[1] a115 a110 a185 a92 a90 am91 a88 a187 a191 a17 a71 b38[0] b38[0]a b37 b26 b26.-170 b17[0] b17[1] b11[0]"/>
    </vehicle>

    <vehicle id="51" depart="1745.00" arrival="2017.00">
        <route edges="a210 a43[0] a43[1] a201 a201c a204a[0] a124 b12 b56[0] b56[1][0] b56[1][1] b5[1][0]+66 b5[1][1][1] b8 b10"/>
    </vehicle>

    <vehicle id="48" depart="1710.00" arrival="2024.00">
        <route edges="a210 a43[0] a43[1] a201 a201c a204a[0] a124 b12 b56[0] b56[1][0] b56[1][1] b5[1][0]+66 b5[1][1][1] b8 b10"/>
    </vehicle>

    <vehicle id="50" depart="1726.00" arrival="2038.00">
        <route edges="a210 a43[0] a43[1] a201 a201c a204a[0] a124 b12 b56[0] b56[1][0] b56[1][1] b5[1][0]+66 b5[1][1][1] b8 b10"/>
    </vehicle>

    <vehicle id="53" depart="1822.00" arrival="2148.00">
        <route edges="a210 a43[0] a43[1] a201 a201c a204a[0] a124 b12 b56[0] b56[1][0] b56[1][1] b5[1][0]+66 b5[1][1][1] b8 b10"/>
    </vehicle>

    <vehicle id="52" depart="1805.00" arrival="2151.00">
        <route edges="a210 a43[0] a43[1] a201 a201c a204a[0] a124 b12 b56[0] b56[1][0] b56[1][1] b5[1][0]+66 b5[1][1][1] b8 b10"/>
    </vehicle>

    <vehicle id="55" depart="1836.00" arrival="2154.00">
        <route edges="a210 a43[0] a43[1] a201 a201c a204a[0] a124 b12 b56[0] b56[1][0] b56[1][1] b5[1][0]+66 b5[1][1][1] b8 b10"/>
    </vehicle>

    <vehicle id="49" depart="1722.00" arrival="2162.00">
        <route edges="a210 a43[0] a43[1] a115 a110 a185 a92 a90 am91 a88 a187 a191 a17 a71 b38[0] b38[0]a b37 b26 b26.-170 b17[0] b17[1] b11[0]"/>
    </vehicle>

    <vehicle id="54" depart="1825.00" arrival="2163.00">
        <route edges="a210 a43[0] a43[1] a115 a110 a185 a92 a90 am91 a88 a187 a191 a17 a71 b38[0] b38[0]a b37 b26 b26.-170 b17[0] b17[1] b11[0]"/>
    </vehicle>

    <vehicle id="57" depart="1944.00" arrival="2265.00">
        <route edges="a210 a43[0] a43[1] a115 a110 a185 a92 a90 am91 a88 a187 a191 a17 a71 b38[0] b38[0]a b37 b26 b26.-170 b17[0] b17[1] b11[0]"/>
    </vehicle>

    <vehicle id="59" depart="2040.00" arrival="2305.00">
        <route edges="a210 a43[0] a43[1] a201 a201c a204a[0] a124 b12 b56[0] b56[1][0] b56[1][1] b5[1][0]+66 b5[1][1][1] b8 b10"/>
    </vehicle>

    <vehicle id="56" depart="1917.00" arrival="2309.00">
        <route edges="a210 a43[0] a43[1] a201 a201c a204a[0] a124 b12 b56[0] b56[1][0] b56[1][1] b5[1][0]+66 b5[1][1][1] b8 b10"/>
    </vehicle>

    <vehicle id="58" depart="2032.00" arrival="2393.00">
        <route edges="a210 a43[0] a43[1] a115 a110 a185 a92 a90 am91 a88 a187 a191 a17 a71 b38[0] b38[0]a b37 b26 b26.-170 b17[0] b17[1] b11[0]"/>
    </vehicle>

    <vehicle id="61" depart="2069.00" arrival="2395.00">
        <route edges="a210 a43[0] a43[1] a115 a110 a185 a92 a90 am91 a88 a187 a191 a17 a71 b38[0] b38[0]a b37 b26 b26.-170 b17[0] b17[1] b11[0]"/>
    </vehicle>

    <vehicle id="60" depart="2063.00" arrival="2442.00">
        <route edges="a210 a43[0] a43[1] a201 a201c a204a[0] a124 b12 b56[0] b56[1][0] b56[1][1] b5[1][0]+66 b5[1][1][1] b8 b10"/>
    </vehicle>

    <vehicle id="62" depart="2072.00" arrival="2445.00">
        <route edges="a210 a43[0] a43[1] a201 a201c a204a[0] a124 b12 b56[0] b56[1][0] b56[1][1] b5[1][0]+66 b5[1][1][1] b8 b10"/>
    </vehicle>

    <vehicle id="63" depart="2140.00" arrival="2448.00">
        <route edges="a210 a43[0] a43[1] a201 a201c a204a[0] a124 b12 b56[0] b56[1][0] b56[1][1] b5[1][0]+66 b5[1][1][1] b8 b10"/>
    </vehicle>

    <vehicle id="64" depart="2170.00" arrival="2522.00">
        <route edges="a210 a43[0] a43[1] a115 a110 a185 a92 a90 am91 a88 a187 a191 a17 a71 b38[0] b38[0]a b37 b26 b26.-170 b17[0] b17[1] b11[0]"/>
    </vehicle>

    <vehicle id="65" depart="2183.00" arrival="2525.00">
        <route edges="a210 a43[0] a43[1] a115 a110 a185 a92 a90 am91 a88 a187 a191 a17 a71 b38[0] b38[0]a b37 b26 b26.-170 b17[0] b17[1] b11[0]"/>
    </vehicle>

    <vehicle id="67" depart="2231.00" arrival="2527.00">
        <route edges="a210 a43[0] a43[1] a115 a110 a185 a92 a90 am91 a88 a187 a191 a17 a71 b38[0] b38[0]a b37 b26 b26.-170 b17[0] b17[1] b11[0]"/>
    </vehicle>

    <vehicle id="68" depart="2261.00" arrival="2529.00">
        <route edges="a210 a43[0] a43[1] a115 a110 a185 a92 a90 am91 a88 a187 a191 a17 a71 b38[0] b38[0]a b37 b26 b26.-170 b17[0] b17[1] b11[0]"/>
    </vehicle>

    <vehicle id="66" depart="2191.00" arrival="2634.00">
        <route edges="a210 a43[0] a43[1] a201 a201c a204a[0] a124 b12 b56[0] b56[1][0] b56[1][1] b5[1][0]+66 b5[1][1][1] b8 b10"/>
    </vehicle>

    <vehicle id="69" depart="2286.00" arrival="2640.00">
        <route edges="a210 a43[0] a43[1] a115 a110 a185 a92 a90 am91 a88 a187 a191 a17 a71 b38[0] b38[0]a b37 b26 b26.-170 b17[0] b17[1] b11[0]"/>
    </vehicle>

    <vehicle id="70" depart="2399.00" arrival="2758.00">
        <route edges="a210 a43[0] a43[1] a201 a201c a204a[0] a124 b12 b56[0] b56[1][0] b56[1][1] b5[1][0]+66 b5[1][1][1] b8 b10"/>
    </vehicle>

    <vehicle id="71" depart="2418.00" arrival="2765.00">
        <route edges="a210 a43[0] a43[1] a115 a110 a185 a92 a90 am91 a88 a187 a191 a17 a71 b38[0] b38[0]a b37 b26 b26.-170 b17[0] b17[1] b11[0]"/>
    </vehicle>

    <vehicle id="72" depart="2428.00" arrival="2768.00">
        <route edges="a210 a43[0] a43[1] a115 a110 a185 a92 a90 am91 a88 a187 a191 a17 a71 b38[0] b38[0]a b37 b26 b26.-170 b17[0] b17[1] b11[0]"/>
    </vehicle>

    <vehicle id="73" depart="2598.00" arrival="2904.00">
        <route edges="a210 a43[0] a43[1] a201 a201c a204a[0] a124 b12 b56[0] b56[1][0] b56[1][1] b5[1][0]+66 b5[1][1][1] b8 b10"/>
    </vehicle>

    <vehicle id="74" depart="2654.00" arrival="3015.00">
        <route edges="a210 a43[0] a43[1] a115 a110 a185 a92 a90 am91 a88 a187 a191 a17 a71 b38[0] b38[0]a b37 b26 b26.-170 b17[0] b17[1] b11[0]"/>
    </vehicle>

    <vehicle id="75" depart="2716.00" arrival="3017.00">
        <route edges="a210 a43[0] a43[1] a115 a110 a185 a92 a90 am91 a88 a187 a191 a17 a71 b38[0] b38[0]a b37 b26 b26.-170 b17[0] b17[1] b11[0]"/>
    </vehicle>

    <vehicle id="76" depart="2719.00" arrival="3020.00">
        <route edges="a210 a43[0] a43[1] a115 a110 a185 a92 a90 am91 a88 a187 a191 a17 a71 b38[0] b38[0]a b37 b26 b26.-170 b17[0] b17[1] b11[0]"/>
    </vehicle>

    <vehicle id="78" depart="2797.00" arrival="3064.00">
        <route edges="a210 a43[0] a43[1] a201 a201c a204a[0] a124 b12 b56[0] b56[1][0] b56[1][1] b5[1][0]+66 b5[1][1][1] b8 b10"/>
    </vehicle>

    <vehicle id="80" depart="2831.00" arrival="3066.00">
        <route edges="a210 a43[0] a43[1] a201 a201c a204a[0] a124 b12 b56[0] b56[1][0] b56[1][1] b5[1][0]+66 b5[1][1][1] b8 b10"/>
    </vehicle>

    <vehicle id="81" depart="2837.00" arrival="3088.00">
        <route edges="a210 a43[0] a43[1] a201 a201c a204a[0] a124 b12 b56[0] b56[1][0] b56[1][1] b5[1][0]+66 b5[1][1][1] b8 b10"/>
    </vehicle>

    <vehicle id="77" depart="2767.00" arrival="3135.00">
        <route edges="a210 a43[0] a43[1] a115 a110 a185 a92 a90 am91 a88 a187 a191 a17 a71 b38[0] b38[0]a b37 b26 b26.-170 b17[0] b17[1] b11[0]"/>
    </vehicle>

    <vehicle id="79" depart="2818.00" arrival="3137.00">
        <route edges="a210 a43[0] a43[1] a115 a110 a185 a92 a90 am91 a88 a187 a191 a17 a71 b38[0] b38[0]a b37 b26 b26.-170 b17[0] b17[1] b11[0]"/>
    </vehicle>

    <vehicle id="82" depart="2948.00" arrival="3243.00">
        <route edges="a210 a43[0] a43[1] a201 a201c a204a[0] a124 b12 b56[0] b56[1][0] b56[1][1] b5[1][0]+66 b5[1][1][1] b8 b10"/>
    </vehicle>

    <vehicle id="84" depart="2971.00" arrival="3245.00">
        <route edges="a210 a43[0] a43[1] a201 a201c a204a[0] a124 b12 b56[0] b56[1][0] b56[1][1] b5[1][0]+66 b5[1][1][1] b8 b10"/>
    </vehicle>

    <vehicle id="86" depart="2986.00" arrival="3248.00">
        <route edges="a210 a43[0] a43[1] a201 a201c a204a[0] a124 b12 b56[0] b56[1][0] b56[1][1] b5[1][0]+66 b5[1][1][1] b8 b10"/>
    </vehicle>

    <vehicle id="83" depart="2959.00" arrival="3257.00">
        <route edges="a210 a43[0] a43[1] a115 a110 a185 a92 a90 am91 a88 a187 a191 a17 a71 b38[0] b38[0]a b37 b26 b26.-170 b17[0] b17[1] b11[0]"/>
    </vehicle>

    <vehicle id="85" depart="2974.00" arrival="3382.00">
        <route edges="a210 a43[0] a43[1] a115 a110 a185 a92 a90 am91 a88 a187 a191 a17 a71 b38[0] b38[0]a b37 b26 b26.-170 b17[0] b17[1] b11[0]"/>
    </vehicle>

    <vehicle id="87" depart="3066.00" arrival="3384.00">
        <route edges="a210 a43[0] a43[1] a115 a110 a185 a92 a90 am91 a88 a187 a191 a17 a71 b38[0] b38[0]a b37 b26 b26.-170 b17[0] b17[1] b11[0]"/>
    </vehicle>

    <vehicle id="88" depart="3113.00" arrival="3402.00">
        <route edges="a210 a43[0] a43[1] a201 a201c a204a[0] a124 b12 b56[0] b56[1][0] b56[1][1] b5[1][0]+66 b5[1][1][1] b8 b10"/>
    </vehicle>

    <vehicle id="90" depart="3154.00" arrival="3404.00">
        <route edges="a210 a43[0] a43[1] a201 a201c a204a[0] a124 b12 b56[0] b56[1][0] b56[1][1] b5[1][0]+66 b5[1][1][1] b8 b10"/>
    </vehicle>

    <vehicle id="89" depart="3145.00" arrival="3501.00">
        <route edges="a210 a43[0] a43[1] a115 a110 a185 a92 a90 am91 a88 a187 a191 a17 a71 b38[0] b38[0]a b37 b26 b26.-170 b17[0] b17[1] b11[0]"/>
    </vehicle>

    <vehicle id="91" depart="3234.00" arrival="3633.00">
        <route edges="a210 a43[0] a43[1] a115 a110 a185 a92 a90 am91 a88 a187 a191 a17 a71 b38[0] b38[0]a b37 b26 b26.-170 b17[0] b17[1] b11[0]"/>
    </vehicle>

    <vehicle id="94" depart="3393.00" arrival="3738.00">
        <route edges="a210 a43[0] a43[1] a201 a201c a204a[0] a124 b12 b56[0] b56[1][0] b56[1][1] b5[1][0]+66 b5[1][1][1] b8 b10"/>
    </vehicle>

    <vehicle id="92" depart="3358.00" arrival="3745.00">
        <route edges="a210 a43[0] a43[1] a201 a201c a204a[0] a124 b12 b56[0] b56[1][0] b56[1][1] b5[1][0]+66 b5[1][1][1] b8 b10"/>
    </vehicle>

    <vehicle id="97" depart="3462.00" arrival="3747.00">
        <route edges="a210 a43[0] a43[1] a201 a201c a204a[0] a124 b12 b56[0] b56[1][0] b56[1][1] b5[1][0]+66 b5[1][1][1] b8 b10"/>
    </vehicle>

    <vehicle id="93" depart="3372.00" arrival="3755.00">
        <route edges="a210 a43[0] a43[1] a115 a110 a185 a92 a90 am91 a88 a187 a191 a17 a71 b38[0] b38[0]a b37 b26 b26.-170 b17[0] b17[1] b11[0]"/>
    </vehicle>

    <vehicle id="95" depart="3431.00" arrival="3757.00">
        <route edges="a210 a43[0] a43[1] a115 a110 a185 a92 a90 am91 a88 a187 a191 a17 a71 b38[0] b38[0]a b37 b26 b26.-170 b17[0] b17[1] b11[0]"/>
    </vehicle>

    <vehicle id="96" depart="3447.00" arrival="3759.00">
        <route edges="a210 a43[0] a43[1] a115 a110 a185 a92 a90 am91 a88 a187 a191 a17 a71 b38[0] b38[0]a b37 b26 b26.-170 b17[0] b17[1] b11[0]"/>
    </vehicle>

    <vehicle id="98" depart="3507.00" arrival="3864.00">
        <route edges="a210 a43[0] a43[1] a115 a110 a185 a92 a90 am91 a88 a187 a191 a17 a71 b38[0] b38[0]a b37 b26 b26.-170 b17[0] b17[1] b11[0]"/>
    </vehicle>

    <vehicle id="99" depart="3533.00" arrival="3864.00">
        <route edges="a210 a43[0] a43[1] a201 a201c a204a[0] a124 b12 b56[0] b56[1][0] b56[1][1] b5[1][0]+66 b5[1][1][1] b8 b10"/>
    </vehicle>

</routes>
