<?xml version="1.0" encoding="UTF-8"?>

<!-- generated on 2025-03-21 17:56:26 by Eclipse SUMO sumo Version 1.21.0
<sumoConfiguration xmlns:xsi="http://www.w3.org/2001/XMLSchema-instance" xsi:noNamespaceSchemaLocation="http://sumo.dlr.de/xsd/sumoConfiguration.xsd">

    <input>
        <net-file value="${STATICPATH}/joined_lanes.net.xml"/>
        <route-files value="${SIMULATIONPATH}/generatedRoutes.rou.xml"/>
        <additional-files value="${STATICPATH}/detectors.add.xml,${STATICPATH}/joined_vtypes.add.xml,${STATICPATH}/joined_tls.add.xml"/>
    </input>

    <output>
        <fcd-output value="${SIMULATIONPATH}/fcd.xml"/>
        <queue-output value="${SIMULATIONPATH}/queue.xml"/>
        <summary-output value="${SIMULATIONPATH}/summary.xml"/>
        <tripinfo-output value="${SIMULATIONPATH}/tripinfos.xml"/>
        <vehroute-output value="${SIMULATIONPATH}/vehroute.xml"/>
        <save-state.prefix value="configs\state"/>
    </output>

    <processing>
        <ignore-junction-blocker value="1"/>
        <ignore-route-errors value="true"/>
        <time-to-teleport value="-1"/>
    </processing>

    <report>
        <log value="C:/Users/fabio/Desktop/sumo_log.txt"/>
        <no-step-log value="true"/>
    </report>

    <emissions>
        <phemlight-path value="configs\./PHEMlight/"/>
    </emissions>

    <traci_server>
        <remote-port value="60247"/>
    </traci_server>

</sumoConfiguration>
-->

<fcd-export xmlns:xsi="http://www.w3.org/2001/XMLSchema-instance" xsi:noNamespaceSchemaLocation="http://sumo.dlr.de/xsd/fcd_file.xsd">
    <timestep time="0.00"/>
    <timestep time="1.00"/>
    <timestep time="2.00"/>
    <timestep time="3.00"/>
    <timestep time="4.00"/>
    <timestep time="5.00">
        <vehicle id="0" x="1333.43" y="5.88" angle="10.07" type="DEFAULT_VEHTYPE" speed="0.00" pos="5.10" lane="a195_0" slope="0.00"/>
    </timestep>
    <timestep time="6.00">
        <vehicle id="0" x="1333.84" y="8.19" angle="10.07" type="DEFAULT_VEHTYPE" speed="2.34" pos="7.44" lane="a195_0" slope="0.00"/>
    </timestep>
    <timestep time="7.00">
        <vehicle id="0" x="1334.50" y="11.91" angle="10.07" type="DEFAULT_VEHTYPE" speed="3.78" pos="11.22" lane="a195_0" slope="0.00"/>
    </timestep>
    <timestep time="8.00">
        <vehicle id="0" x="1335.95" y="17.97" angle="13.95" type="DEFAULT_VEHTYPE" speed="6.23" pos="17.45" lane="a195_0" slope="0.00"/>
    </timestep>
    <timestep time="9.00">
        <vehicle id="0" x="1337.90" y="25.82" angle="13.95" type="DEFAULT_VEHTYPE" speed="8.09" pos="25.55" lane="a195_0" slope="0.00"/>
    </timestep>
    <timestep time="10.00">
        <vehicle id="0" x="1340.41" y="35.91" angle="13.95" type="DEFAULT_VEHTYPE" speed="10.40" pos="35.94" lane="a195_0" slope="0.00"/>
    </timestep>
    <timestep time="11.00">
        <vehicle id="0" x="1343.92" y="47.90" angle="16.93" type="DEFAULT_VEHTYPE" speed="12.49" pos="48.44" lane="a195_0" slope="0.00"/>
    </timestep>
    <timestep time="12.00">
        <vehicle id="0" x="1347.74" y="60.91" angle="16.22" type="DEFAULT_VEHTYPE" speed="13.56" pos="62.00" lane="a195_0" slope="0.00"/>
    </timestep>
    <timestep time="13.00">
        <vehicle id="0" x="1351.62" y="74.25" angle="16.22" type="DEFAULT_VEHTYPE" speed="13.89" pos="75.89" lane="a195_0" slope="0.00"/>
    </timestep>
    <timestep time="14.00">
        <vehicle id="0" x="1355.43" y="87.30" angle="16.39" type="DEFAULT_VEHTYPE" speed="13.60" pos="89.49" lane="a195_0" slope="0.00"/>
    </timestep>
    <timestep time="15.00">
        <vehicle id="0" x="1359.82" y="100.18" angle="18.83" type="DEFAULT_VEHTYPE" speed="13.61" pos="103.09" lane="a195_0" slope="0.00"/>
    </timestep>
    <timestep time="16.00">
        <vehicle id="0" x="1364.24" y="113.13" angle="18.83" type="DEFAULT_VEHTYPE" speed="13.68" pos="116.77" lane="a195_0" slope="0.00"/>
    </timestep>
    <timestep time="17.00">
        <vehicle id="0" x="1368.96" y="126.87" angle="19.26" type="DEFAULT_VEHTYPE" speed="14.53" pos="4.36" lane=":a50_1_0" slope="0.00"/>
    </timestep>
    <timestep time="18.00">
        <vehicle id="0" x="1373.55" y="139.94" angle="19.32" type="DEFAULT_VEHTYPE" speed="13.85" pos="18.21" lane=":a50_1_0" slope="0.00"/>
    </timestep>
    <timestep time="19.00">
        <vehicle id="0" x="1378.44" y="152.65" angle="21.55" type="DEFAULT_VEHTYPE" speed="13.63" pos="10.66" lane="a61_0" slope="0.00"/>
    </timestep>
    <timestep time="20.00">
        <vehicle id="0" x="1383.43" y="165.27" angle="21.55" type="DEFAULT_VEHTYPE" speed="13.57" pos="24.22" lane="a61_0" slope="0.00"/>
    </timestep>
    <timestep time="21.00">
        <vehicle id="0" x="1388.49" y="178.10" angle="21.55" type="DEFAULT_VEHTYPE" speed="13.80" pos="38.02" lane="a61_0" slope="0.00"/>
    </timestep>
    <timestep time="22.00">
        <vehicle id="0" x="1393.88" y="191.74" angle="21.55" type="DEFAULT_VEHTYPE" speed="14.66" pos="52.69" lane="a61_0" slope="0.00"/>
    </timestep>
    <timestep time="23.00">
        <vehicle id="0" x="1399.05" y="204.84" angle="21.55" type="DEFAULT_VEHTYPE" speed="14.08" pos="66.77" lane="a61_0" slope="0.00"/>
    </timestep>
    <timestep time="24.00">
        <vehicle id="0" x="1404.18" y="217.82" angle="21.55" type="DEFAULT_VEHTYPE" speed="13.96" pos="80.73" lane="a61_0" slope="0.00"/>
    </timestep>
    <timestep time="25.00">
        <vehicle id="0" x="1409.57" y="231.47" angle="21.55" type="DEFAULT_VEHTYPE" speed="14.67" pos="95.39" lane="a61_0" slope="0.00"/>
    </timestep>
    <timestep time="26.00">
        <vehicle id="0" x="1414.62" y="244.26" angle="21.55" type="DEFAULT_VEHTYPE" speed="13.76" pos="109.15" lane="a61_0" slope="0.00"/>
    </timestep>
    <timestep time="27.00">
        <vehicle id="0" x="1419.91" y="257.66" angle="21.55" type="DEFAULT_VEHTYPE" speed="14.40" pos="123.55" lane="a61_0" slope="0.00"/>
    </timestep>
    <timestep time="28.00">
        <vehicle id="0" x="1425.06" y="270.69" angle="21.55" type="DEFAULT_VEHTYPE" speed="14.01" pos="137.57" lane="a61_0" slope="0.00"/>
    </timestep>
    <timestep time="29.00">
        <vehicle id="0" x="1430.11" y="283.48" angle="21.55" type="DEFAULT_VEHTYPE" speed="13.75" pos="151.32" lane="a61_0" slope="0.00"/>
    </timestep>
    <timestep time="30.00">
        <vehicle id="0" x="1435.51" y="297.17" angle="21.55" type="DEFAULT_VEHTYPE" speed="14.72" pos="166.04" lane="a61_0" slope="0.00"/>
    </timestep>
    <timestep time="31.00">
        <vehicle id="0" x="1440.60" y="310.05" angle="21.55" type="DEFAULT_VEHTYPE" speed="13.85" pos="179.89" lane="a61_0" slope="0.00"/>
    </timestep>
    <timestep time="32.00">
        <vehicle id="0" x="1445.04" y="321.29" angle="21.55" type="DEFAULT_VEHTYPE" speed="12.08" pos="191.96" lane="a61_0" slope="0.00"/>
    </timestep>
    <timestep time="33.00">
        <vehicle id="0" x="1447.83" y="328.35" angle="21.55" type="DEFAULT_VEHTYPE" speed="7.60" pos="199.56" lane="a61_0" slope="0.00"/>
    </timestep>
    <timestep time="34.00">
        <vehicle id="0" x="1453.88" y="331.48" angle="76.48" type="DEFAULT_VEHTYPE" speed="7.45" pos="7.13" lane=":a48_3_0" slope="0.00"/>
    </timestep>
    <timestep time="35.00">
        <vehicle id="0" x="1460.74" y="329.69" angle="107.55" type="DEFAULT_VEHTYPE" speed="7.13" pos="1.25" lane="a58[0]_0" slope="0.00"/>
    </timestep>
    <timestep time="36.00">
        <vehicle id="0" x="1469.25" y="326.45" angle="110.79" type="DEFAULT_VEHTYPE" speed="9.10" pos="10.35" lane="a58[0]_0" slope="0.00"/>
    </timestep>
    <timestep time="37.00">
        <vehicle id="0" x="1479.50" y="323.08" angle="105.99" type="DEFAULT_VEHTYPE" speed="10.79" pos="21.15" lane="a58[0]_0" slope="0.00"/>
    </timestep>
    <timestep time="38.00">
        <vehicle id="0" x="1491.39" y="321.24" angle="92.16" type="DEFAULT_VEHTYPE" speed="12.12" pos="33.27" lane="a58[0]_0" slope="0.00"/>
    </timestep>
    <timestep time="39.00">
        <vehicle id="0" x="1500.34" y="327.64" angle="20.69" type="DEFAULT_VEHTYPE" speed="13.31" pos="46.58" lane="a58[0]_0" slope="0.00"/>
    </timestep>
    <timestep time="40.00">
        <vehicle id="0" x="1498.15" y="336.17" angle="345.56" type="DEFAULT_VEHTYPE" speed="8.81" pos="55.38" lane="a58[0]_0" slope="0.00"/>
    </timestep>
    <timestep time="41.00">
        <vehicle id="0" x="1497.08" y="340.34" angle="345.56" type="DEFAULT_VEHTYPE" speed="4.31" pos="59.69" lane="a58[0]_0" slope="0.00"/>
    </timestep>
    <timestep time="42.00">
        <vehicle id="0" x="1499.48" y="339.80" angle="61.95" type="DEFAULT_VEHTYPE" speed="3.35" pos="0.70" lane="a58[1]_0" slope="0.00"/>
    </timestep>
    <timestep time="43.00">
        <vehicle id="0" x="1503.93" y="341.23" angle="72.24" type="DEFAULT_VEHTYPE" speed="4.67" pos="5.37" lane="a58[1]_0" slope="0.00"/>
    </timestep>
    <timestep time="44.00">
        <vehicle id="0" x="1510.76" y="343.42" angle="72.24" type="DEFAULT_VEHTYPE" speed="7.17" pos="12.54" lane="a58[1]_0" slope="0.00"/>
    </timestep>
    <timestep time="45.00">
        <vehicle id="0" x="1519.75" y="346.30" angle="72.24" type="DEFAULT_VEHTYPE" speed="9.44" pos="21.98" lane="a58[1]_0" slope="0.00"/>
    </timestep>
    <timestep time="46.00">
        <vehicle id="0" x="1530.44" y="349.72" angle="72.24" type="DEFAULT_VEHTYPE" speed="11.23" pos="33.20" lane="a58[1]_0" slope="0.00"/>
    </timestep>
    <timestep time="47.00">
        <vehicle id="0" x="1543.26" y="353.83" angle="72.24" type="DEFAULT_VEHTYPE" speed="13.47" pos="46.67" lane="a58[1]_0" slope="0.00"/>
    </timestep>
    <timestep time="48.00">
        <vehicle id="0" x="1557.27" y="358.32" angle="72.24" type="DEFAULT_VEHTYPE" speed="14.71" pos="61.38" lane="a58[1]_0" slope="0.00"/>
    </timestep>
    <timestep time="49.00">
        <vehicle id="0" x="1571.03" y="362.72" angle="72.24" type="DEFAULT_VEHTYPE" speed="14.44" pos="75.82" lane="a58[1]_0" slope="0.00"/>
    </timestep>
    <timestep time="50.00">
        <vehicle id="0" x="1584.56" y="367.06" angle="72.24" type="DEFAULT_VEHTYPE" speed="14.21" pos="90.03" lane="a58[1]_0" slope="0.00"/>
    </timestep>
    <timestep time="51.00">
        <vehicle id="0" x="1597.65" y="371.25" angle="72.24" type="DEFAULT_VEHTYPE" speed="13.74" pos="103.77" lane="a58[1]_0" slope="0.00"/>
    </timestep>
    <timestep time="52.00">
        <vehicle id="0" x="1610.52" y="375.38" angle="72.24" type="DEFAULT_VEHTYPE" speed="13.52" pos="117.29" lane="a58[1]_0" slope="0.00"/>
    </timestep>
    <timestep time="53.00">
        <vehicle id="0" x="1623.78" y="379.63" angle="72.24" type="DEFAULT_VEHTYPE" speed="13.93" pos="131.21" lane="a58[1]_0" slope="0.00"/>
    </timestep>
    <timestep time="54.00">
        <vehicle id="0" x="1637.10" y="383.89" angle="72.24" type="DEFAULT_VEHTYPE" speed="13.99" pos="145.20" lane="a58[1]_0" slope="0.00"/>
    </timestep>
    <timestep time="55.00">
        <vehicle id="0" x="1649.99" y="388.02" angle="72.24" type="DEFAULT_VEHTYPE" speed="13.53" pos="158.73" lane="a58[1]_0" slope="0.00"/>
    </timestep>
    <timestep time="56.00">
        <vehicle id="0" x="1663.77" y="392.44" angle="72.24" type="DEFAULT_VEHTYPE" speed="14.47" pos="173.21" lane="a58[1]_0" slope="0.00"/>
    </timestep>
    <timestep time="57.00">
        <vehicle id="0" x="1677.02" y="396.65" angle="72.53" type="DEFAULT_VEHTYPE" speed="13.90" pos="4.56" lane=":a46_4_0" slope="0.00"/>
        <vehicle id="1" x="2096.33" y="944.33" angle="294.77" type="DEFAULT_VEHTYPE" speed="0.00" pos="5.10" lane="a55_0" slope="0.00"/>
    </timestep>
    <timestep time="58.00">
        <vehicle id="0" x="1690.29" y="400.81" angle="72.65" type="DEFAULT_VEHTYPE" speed="13.91" pos="5.95" lane="a66_0" slope="0.00"/>
        <vehicle id="1" x="2094.38" y="945.22" angle="294.77" type="DEFAULT_VEHTYPE" speed="2.14" pos="7.24" lane="a55_0" slope="0.00"/>
    </timestep>
    <timestep time="59.00">
        <vehicle id="0" x="1703.92" y="405.07" angle="72.65" type="DEFAULT_VEHTYPE" speed="14.28" pos="20.23" lane="a66_0" slope="0.00"/>
        <vehicle id="1" x="2091.16" y="946.71" angle="294.77" type="DEFAULT_VEHTYPE" speed="3.55" pos="10.79" lane="a55_0" slope="0.00"/>
    </timestep>
    <timestep time="60.00">
        <vehicle id="0" x="1717.43" y="409.29" angle="72.65" type="DEFAULT_VEHTYPE" speed="14.16" pos="34.38" lane="a66_0" slope="0.00"/>
        <vehicle id="1" x="2086.54" y="948.84" angle="294.77" type="DEFAULT_VEHTYPE" speed="5.09" pos="15.88" lane="a55_0" slope="0.00"/>
    </timestep>
    <timestep time="61.00">
        <vehicle id="0" x="1730.69" y="413.43" angle="72.65" type="DEFAULT_VEHTYPE" speed="13.90" pos="48.28" lane="a66_0" slope="0.00"/>
        <vehicle id="1" x="2080.45" y="951.66" angle="294.77" type="DEFAULT_VEHTYPE" speed="6.71" pos="22.59" lane="a55_0" slope="0.00"/>
    </timestep>
    <timestep time="62.00">
        <vehicle id="0" x="1744.71" y="417.81" angle="72.65" type="DEFAULT_VEHTYPE" speed="14.68" pos="62.96" lane="a66_0" slope="0.00"/>
        <vehicle id="1" x="2072.59" y="955.28" angle="294.77" type="DEFAULT_VEHTYPE" speed="8.66" pos="31.25" lane="a55_0" slope="0.00"/>
    </timestep>
    <timestep time="63.00">
        <vehicle id="0" x="1757.81" y="421.90" angle="72.65" type="DEFAULT_VEHTYPE" speed="13.73" pos="76.69" lane="a66_0" slope="0.00"/>
        <vehicle id="1" x="2062.80" y="959.80" angle="294.77" type="DEFAULT_VEHTYPE" speed="10.78" pos="42.03" lane="a55_0" slope="0.00"/>
    </timestep>
    <timestep time="64.00">
        <vehicle id="0" x="1769.61" y="425.59" angle="72.65" type="DEFAULT_VEHTYPE" speed="12.36" pos="89.05" lane="a66_0" slope="0.00"/>
        <vehicle id="1" x="2051.79" y="964.88" angle="294.77" type="DEFAULT_VEHTYPE" speed="12.13" pos="54.15" lane="a55_0" slope="0.00"/>
    </timestep>
    <timestep time="65.00">
        <vehicle id="0" x="1777.82" y="428.15" angle="72.65" type="DEFAULT_VEHTYPE" speed="8.60" pos="97.65" lane="a66_0" slope="0.00"/>
        <vehicle id="1" x="2040.79" y="969.95" angle="294.77" type="DEFAULT_VEHTYPE" speed="12.11" pos="66.26" lane="a55_0" slope="0.00"/>
    </timestep>
    <timestep time="66.00">
        <vehicle id="0" x="1781.58" y="429.75" angle="68.04" type="DEFAULT_VEHTYPE" speed="4.10" pos="2.87" lane=":a51_6_0" slope="0.00"/>
        <vehicle id="1" x="2029.21" y="975.30" angle="294.77" type="DEFAULT_VEHTYPE" speed="12.75" pos="79.02" lane="a55_0" slope="0.00"/>
    </timestep>
    <timestep time="67.00">
        <vehicle id="0" x="1784.93" y="433.80" angle="37.17" type="DEFAULT_VEHTYPE" speed="5.48" pos="4.35" lane=":a51_9_0" slope="0.00"/>
        <vehicle id="1" x="2018.23" y="980.37" angle="294.77" type="DEFAULT_VEHTYPE" speed="12.10" pos="91.12" lane="a55_0" slope="0.00"/>
    </timestep>
    <timestep time="68.00">
        <vehicle id="0" x="1784.28" y="441.09" angle="348.17" type="DEFAULT_VEHTYPE" speed="7.48" pos="1.63" lane="a119_0" slope="0.00"/>
        <vehicle id="1" x="2007.57" y="985.29" angle="294.77" type="DEFAULT_VEHTYPE" speed="11.73" pos="102.85" lane="a55_0" slope="0.00"/>
    </timestep>
    <timestep time="69.00">
        <vehicle id="0" x="1781.56" y="449.82" angle="342.66" type="DEFAULT_VEHTYPE" speed="9.14" pos="10.77" lane="a119_0" slope="0.00"/>
        <vehicle id="1" x="1995.87" y="990.69" angle="294.77" type="DEFAULT_VEHTYPE" speed="12.89" pos="115.74" lane="a55_0" slope="0.00"/>
    </timestep>
    <timestep time="70.00">
        <vehicle id="0" x="1778.13" y="460.80" angle="342.66" type="DEFAULT_VEHTYPE" speed="11.51" pos="22.28" lane="a119_0" slope="0.00"/>
        <vehicle id="1" x="1985.21" y="995.61" angle="294.77" type="DEFAULT_VEHTYPE" speed="11.74" pos="127.48" lane="a55_0" slope="0.00"/>
    </timestep>
    <timestep time="71.00">
        <vehicle id="0" x="1773.93" y="474.25" angle="342.66" type="DEFAULT_VEHTYPE" speed="14.08" pos="36.36" lane="a119_0" slope="0.00"/>
        <vehicle id="1" x="1973.64" y="1000.94" angle="294.77" type="DEFAULT_VEHTYPE" speed="12.73" pos="140.21" lane="a55_0" slope="0.00"/>
    </timestep>
    <timestep time="72.00">
        <vehicle id="0" x="1769.59" y="488.14" angle="342.66" type="DEFAULT_VEHTYPE" speed="14.55" pos="50.91" lane="a119_0" slope="0.00"/>
        <vehicle id="1" x="1962.58" y="1006.05" angle="294.77" type="DEFAULT_VEHTYPE" speed="12.19" pos="152.40" lane="a55_0" slope="0.00"/>
    </timestep>
    <timestep time="73.00">
        <vehicle id="0" x="1765.25" y="502.06" angle="342.66" type="DEFAULT_VEHTYPE" speed="14.58" pos="65.50" lane="a119_0" slope="0.00"/>
        <vehicle id="1" x="1951.30" y="1011.25" angle="294.77" type="DEFAULT_VEHTYPE" speed="12.42" pos="164.82" lane="a55_0" slope="0.00"/>
        <vehicle id="2" x="2108.49" y="1334.81" angle="233.59" type="DEFAULT_VEHTYPE" speed="0.00" pos="5.10" lane="a203[0]_0" slope="0.00"/>
    </timestep>
    <timestep time="74.00">
        <vehicle id="0" x="1761.22" y="514.96" angle="342.66" type="DEFAULT_VEHTYPE" speed="13.52" pos="79.02" lane="a119_0" slope="0.00"/>
        <vehicle id="1" x="1939.73" y="1016.59" angle="294.77" type="DEFAULT_VEHTYPE" speed="12.74" pos="177.56" lane="a55_0" slope="0.00"/>
        <vehicle id="2" x="2106.90" y="1333.64" angle="233.59" type="DEFAULT_VEHTYPE" speed="1.97" pos="7.07" lane="a203[0]_0" slope="0.00"/>
    </timestep>
    <timestep time="75.00">
        <vehicle id="0" x="1756.90" y="528.77" angle="342.66" type="DEFAULT_VEHTYPE" speed="14.47" pos="93.48" lane="a119_0" slope="0.00"/>
        <vehicle id="1" x="1928.09" y="1021.96" angle="294.77" type="DEFAULT_VEHTYPE" speed="12.83" pos="190.39" lane="a55_0" slope="0.00"/>
        <vehicle id="2" x="2103.92" y="1331.45" angle="233.59" type="DEFAULT_VEHTYPE" speed="3.70" pos="10.77" lane="a203[0]_0" slope="0.00"/>
    </timestep>
    <timestep time="76.00">
        <vehicle id="0" x="1752.54" y="542.75" angle="342.66" type="DEFAULT_VEHTYPE" speed="14.64" pos="108.13" lane="a119_0" slope="0.00"/>
        <vehicle id="1" x="1916.32" y="1027.39" angle="294.77" type="DEFAULT_VEHTYPE" speed="12.96" pos="203.35" lane="a55_0" slope="0.00"/>
        <vehicle id="2" x="2099.43" y="1328.13" angle="233.59" type="DEFAULT_VEHTYPE" speed="5.59" pos="16.36" lane="a203[0]_0" slope="0.00"/>
    </timestep>
    <timestep time="77.00">
        <vehicle id="0" x="1748.31" y="556.28" angle="342.66" type="DEFAULT_VEHTYPE" speed="14.17" pos="122.30" lane="a119_0" slope="0.00"/>
        <vehicle id="1" x="1905.57" y="1032.35" angle="294.77" type="DEFAULT_VEHTYPE" speed="11.84" pos="215.19" lane="a55_0" slope="0.00"/>
        <vehicle id="2" x="2093.17" y="1323.52" angle="233.59" type="DEFAULT_VEHTYPE" speed="7.77" pos="24.13" lane="a203[0]_0" slope="0.00"/>
    </timestep>
    <timestep time="78.00">
        <vehicle id="0" x="1744.01" y="570.06" angle="342.66" type="DEFAULT_VEHTYPE" speed="14.43" pos="136.74" lane="a119_0" slope="0.00"/>
        <vehicle id="1" x="1894.11" y="1037.64" angle="294.77" type="DEFAULT_VEHTYPE" speed="12.62" pos="227.81" lane="a55_0" slope="0.00"/>
        <vehicle id="2" x="2084.95" y="1317.45" angle="233.59" type="DEFAULT_VEHTYPE" speed="10.22" pos="34.34" lane="a203[0]_0" slope="0.00"/>
    </timestep>
    <timestep time="79.00">
        <vehicle id="0" x="1740.42" y="581.57" angle="342.66" type="DEFAULT_VEHTYPE" speed="12.05" pos="148.79" lane="a119_0" slope="0.00"/>
        <vehicle id="1" x="1883.24" y="1042.66" angle="294.77" type="DEFAULT_VEHTYPE" speed="11.97" pos="239.78" lane="a55_0" slope="0.00"/>
        <vehicle id="2" x="2075.46" y="1310.45" angle="233.59" type="DEFAULT_VEHTYPE" speed="11.80" pos="46.14" lane="a203[0]_0" slope="0.00"/>
    </timestep>
    <timestep time="80.00">
        <vehicle id="0" x="1738.17" y="588.78" angle="342.66" type="DEFAULT_VEHTYPE" speed="7.55" pos="156.34" lane="a119_0" slope="0.00"/>
        <vehicle id="1" x="1872.01" y="1047.84" angle="294.77" type="DEFAULT_VEHTYPE" speed="12.37" pos="252.15" lane="a55_0" slope="0.00"/>
        <vehicle id="2" x="2064.18" y="1302.13" angle="233.59" type="DEFAULT_VEHTYPE" speed="14.02" pos="60.16" lane="a203[0]_0" slope="0.00"/>
    </timestep>
    <timestep time="81.00">
        <vehicle id="0" x="1736.85" y="593.69" angle="345.08" type="DEFAULT_VEHTYPE" speed="5.09" pos="1.55" lane=":a73_1_0" slope="0.00"/>
        <vehicle id="1" x="1861.21" y="1052.82" angle="294.77" type="DEFAULT_VEHTYPE" speed="11.89" pos="264.04" lane="a55_0" slope="0.00"/>
        <vehicle id="2" x="2053.20" y="1294.03" angle="233.59" type="DEFAULT_VEHTYPE" speed="13.64" pos="73.80" lane="a203[0]_0" slope="0.00"/>
    </timestep>
    <timestep time="82.00">
        <vehicle id="0" x="1740.06" y="597.41" angle="51.45" type="DEFAULT_VEHTYPE" speed="6.04" pos="7.59" lane=":a73_1_0" slope="0.00"/>
        <vehicle id="1" x="1850.50" y="1057.77" angle="294.77" type="DEFAULT_VEHTYPE" speed="11.80" pos="275.84" lane="a55_0" slope="0.00"/>
        <vehicle id="2" x="2042.91" y="1286.44" angle="233.59" type="DEFAULT_VEHTYPE" speed="12.79" pos="86.59" lane="a203[0]_0" slope="0.00"/>
    </timestep>
    <timestep time="83.00">
        <vehicle id="0" x="1745.99" y="596.60" angle="98.90" type="DEFAULT_VEHTYPE" speed="5.99" pos="4.39" lane="a116_0" slope="0.00"/>
        <vehicle id="1" x="1838.94" y="1059.76" angle="271.07" type="DEFAULT_VEHTYPE" speed="11.77" pos="8.26" lane=":a55m_0_2" slope="0.00"/>
        <vehicle id="2" x="2032.22" y="1278.56" angle="233.59" type="DEFAULT_VEHTYPE" speed="13.29" pos="99.87" lane="a203[0]_0" slope="0.00"/>
        <vehicle id="3" x="1333.43" y="5.88" angle="10.07" type="DEFAULT_VEHTYPE" speed="0.00" pos="5.10" lane="a195_0" slope="0.00"/>
    </timestep>
    <timestep time="84.00">
        <vehicle id="0" x="1753.25" y="595.34" angle="99.84" type="DEFAULT_VEHTYPE" speed="7.37" pos="11.77" lane="a116_0" slope="0.00"/>
        <vehicle id="1" x="1829.90" y="1064.24" angle="296.66" type="DEFAULT_VEHTYPE" speed="10.08" pos="9.86" lane="a55b_2" slope="0.00"/>
        <vehicle id="2" x="2021.18" y="1270.42" angle="233.59" type="DEFAULT_VEHTYPE" speed="13.71" pos="113.58" lane="a203[0]_0" slope="0.00"/>
        <vehicle id="3" x="1333.77" y="7.81" angle="10.07" type="DEFAULT_VEHTYPE" speed="1.96" pos="7.06" lane="a195_0" slope="0.00"/>
    </timestep>
    <timestep time="85.00">
        <vehicle id="0" x="1763.00" y="593.65" angle="99.84" type="DEFAULT_VEHTYPE" speed="9.89" pos="21.65" lane="a116_0" slope="0.00"/>
        <vehicle id="1" x="1824.51" y="1066.95" angle="296.66" type="DEFAULT_VEHTYPE" speed="6.02" pos="15.88" lane="a55b_2" slope="0.00"/>
        <vehicle id="2" x="2009.98" y="1262.16" angle="233.59" type="DEFAULT_VEHTYPE" speed="13.92" pos="127.50" lane="a203[0]_0" slope="0.00"/>
        <vehicle id="3" x="1334.35" y="11.05" angle="10.07" type="DEFAULT_VEHTYPE" speed="3.29" pos="10.35" lane="a195_0" slope="0.00"/>
    </timestep>
    <timestep time="86.00">
        <vehicle id="0" x="1775.05" y="591.56" angle="99.84" type="DEFAULT_VEHTYPE" speed="12.24" pos="33.89" lane="a116_0" slope="0.00"/>
        <vehicle id="1" x="1823.01" y="1067.70" angle="296.66" type="DEFAULT_VEHTYPE" speed="1.68" pos="17.56" lane="a55b_2" slope="0.00"/>
        <vehicle id="2" x="1999.02" y="1254.07" angle="233.59" type="DEFAULT_VEHTYPE" speed="13.62" pos="141.12" lane="a203[0]_0" slope="0.00"/>
        <vehicle id="3" x="1335.38" y="15.65" angle="12.44" type="DEFAULT_VEHTYPE" speed="4.72" pos="15.07" lane="a195_0" slope="0.00"/>
    </timestep>
    <timestep time="87.00">
        <vehicle id="0" x="1789.18" y="589.11" angle="99.84" type="DEFAULT_VEHTYPE" speed="14.34" pos="48.23" lane="a116_0" slope="0.00"/>
        <vehicle id="1" x="1823.00" y="1067.71" angle="296.66" type="DEFAULT_VEHTYPE" speed="0.01" pos="17.58" lane="a55b_2" slope="0.00"/>
        <vehicle id="2" x="1988.02" y="1245.95" angle="233.59" type="DEFAULT_VEHTYPE" speed="13.67" pos="154.80" lane="a203[0]_0" slope="0.00"/>
        <vehicle id="3" x="1336.90" y="21.78" angle="13.95" type="DEFAULT_VEHTYPE" speed="6.31" pos="21.38" lane="a195_0" slope="0.00"/>
    </timestep>
    <timestep time="88.00">
        <vehicle id="0" x="1802.47" y="586.81" angle="99.84" type="DEFAULT_VEHTYPE" speed="13.49" pos="61.72" lane="a116_0" slope="0.00"/>
        <vehicle id="1" x="1823.00" y="1067.71" angle="296.66" type="DEFAULT_VEHTYPE" speed="0.00" pos="17.58" lane="a55b_2" slope="0.00"/>
        <vehicle id="2" x="1977.23" y="1238.00" angle="233.59" type="DEFAULT_VEHTYPE" speed="13.40" pos="168.20" lane="a203[0]_0" slope="0.00"/>
        <vehicle id="3" x="1338.91" y="29.89" angle="13.95" type="DEFAULT_VEHTYPE" speed="8.36" pos="29.74" lane="a195_0" slope="0.00"/>
    </timestep>
    <timestep time="89.00">
        <vehicle id="0" x="1816.51" y="584.38" angle="99.75" type="DEFAULT_VEHTYPE" speed="14.46" pos="1.54" lane=":a37_0_2" slope="0.00"/>
        <vehicle id="1" x="1824.44" y="1070.57" angle="296.66" type="DEFAULT_VEHTYPE" speed="0.00" pos="17.58" lane="a55b_1" slope="0.00"/>
        <vehicle id="2" x="1966.51" y="1230.09" angle="233.59" type="DEFAULT_VEHTYPE" speed="13.32" pos="181.52" lane="a203[0]_0" slope="0.00"/>
        <vehicle id="3" x="1341.48" y="39.90" angle="14.90" type="DEFAULT_VEHTYPE" speed="10.34" pos="40.08" lane="a195_0" slope="0.00"/>
    </timestep>
    <timestep time="90.00">
        <vehicle id="0" x="1829.12" y="582.29" angle="99.27" type="DEFAULT_VEHTYPE" speed="13.80" pos="6.13" lane="a46_2" slope="0.00"/>
        <vehicle id="1" x="1824.43" y="1070.57" angle="296.66" type="DEFAULT_VEHTYPE" speed="0.00" pos="17.58" lane="a55b_1" slope="0.00"/>
        <vehicle id="2" x="1956.23" y="1222.51" angle="233.59" type="DEFAULT_VEHTYPE" speed="12.78" pos="194.30" lane="a203[0]_0" slope="0.00"/>
        <vehicle id="3" x="1345.09" y="51.82" angle="16.74" type="DEFAULT_VEHTYPE" speed="12.45" pos="52.53" lane="a195_0" slope="0.00"/>
    </timestep>
    <timestep time="91.00">
        <vehicle id="0" x="1843.24" y="579.99" angle="99.27" type="DEFAULT_VEHTYPE" speed="14.31" pos="20.44" lane="a46_2" slope="0.00"/>
        <vehicle id="1" x="1824.43" y="1070.57" angle="296.66" type="DEFAULT_VEHTYPE" speed="0.00" pos="17.58" lane="a55b_1" slope="0.00"/>
        <vehicle id="2" x="1945.61" y="1214.68" angle="233.59" type="DEFAULT_VEHTYPE" speed="13.19" pos="207.49" lane="a203[0]_0" slope="0.00"/>
        <vehicle id="3" x="1349.13" y="65.68" angle="16.22" type="DEFAULT_VEHTYPE" speed="14.44" pos="66.96" lane="a195_0" slope="0.00"/>
    </timestep>
    <timestep time="92.00">
        <vehicle id="0" x="1857.62" y="577.64" angle="99.27" type="DEFAULT_VEHTYPE" speed="14.56" pos="35.00" lane="a46_2" slope="0.00"/>
        <vehicle id="1" x="1824.43" y="1070.57" angle="296.66" type="DEFAULT_VEHTYPE" speed="0.00" pos="17.58" lane="a55b_1" slope="0.00"/>
        <vehicle id="2" x="1935.13" y="1206.95" angle="233.59" type="DEFAULT_VEHTYPE" speed="13.02" pos="220.51" lane="a203[0]_0" slope="0.00"/>
        <vehicle id="3" x="1353.00" y="79.00" angle="16.22" type="DEFAULT_VEHTYPE" speed="13.88" pos="80.84" lane="a195_0" slope="0.00"/>
    </timestep>
    <timestep time="93.00">
        <vehicle id="0" x="1871.47" y="575.38" angle="99.27" type="DEFAULT_VEHTYPE" speed="14.03" pos="49.03" lane="a46_2" slope="0.00"/>
        <vehicle id="1" x="1824.43" y="1070.57" angle="296.66" type="DEFAULT_VEHTYPE" speed="0.00" pos="17.58" lane="a55b_1" slope="0.00"/>
        <vehicle id="2" x="1924.73" y="1199.28" angle="233.59" type="DEFAULT_VEHTYPE" speed="12.92" pos="233.43" lane="a203[0]_0" slope="0.00"/>
        <vehicle id="3" x="1357.37" y="92.98" angle="18.83" type="DEFAULT_VEHTYPE" speed="14.64" pos="95.48" lane="a195_0" slope="0.00"/>
    </timestep>
    <timestep time="94.00">
        <vehicle id="0" x="1880.87" y="573.85" angle="99.27" type="DEFAULT_VEHTYPE" speed="9.53" pos="58.55" lane="a46_2" slope="0.00"/>
        <vehicle id="1" x="1824.43" y="1070.57" angle="296.66" type="DEFAULT_VEHTYPE" speed="0.00" pos="17.58" lane="a55b_1" slope="0.00"/>
        <vehicle id="2" x="1913.65" y="1191.10" angle="233.59" type="DEFAULT_VEHTYPE" speed="13.77" pos="247.20" lane="a203[0]_0" slope="0.00"/>
        <vehicle id="3" x="1362.02" y="106.61" angle="18.83" type="DEFAULT_VEHTYPE" speed="14.40" pos="109.88" lane="a195_0" slope="0.00"/>
    </timestep>
    <timestep time="95.00">
        <vehicle id="0" x="1885.83" y="573.04" angle="99.27" type="DEFAULT_VEHTYPE" speed="5.03" pos="63.58" lane="a46_2" slope="0.00"/>
        <vehicle id="1" x="1822.90" y="1071.46" angle="297.91" type="DEFAULT_VEHTYPE" speed="1.81" pos="0.81" lane=":a44_3_0" slope="0.00"/>
        <vehicle id="2" x="1902.61" y="1182.96" angle="233.59" type="DEFAULT_VEHTYPE" speed="13.72" pos="260.92" lane="a203[0]_0" slope="0.00"/>
        <vehicle id="3" x="1366.48" y="119.70" angle="18.83" type="DEFAULT_VEHTYPE" speed="13.83" pos="123.72" lane="a195_0" slope="0.00"/>
    </timestep>
    <timestep time="96.00">
        <vehicle id="0" x="1887.56" y="572.76" angle="99.27" type="DEFAULT_VEHTYPE" speed="1.75" pos="65.33" lane="a46_2" slope="0.00"/>
        <vehicle id="1" x="1820.40" y="1073.19" angle="302.95" type="DEFAULT_VEHTYPE" speed="3.15" pos="3.96" lane=":a44_3_0" slope="0.00"/>
        <vehicle id="2" x="1891.98" y="1175.12" angle="233.59" type="DEFAULT_VEHTYPE" speed="13.21" pos="274.13" lane="a203[0]_0" slope="0.00"/>
        <vehicle id="3" x="1371.23" y="133.34" angle="19.32" type="DEFAULT_VEHTYPE" speed="14.44" pos="11.22" lane=":a50_1_0" slope="0.00"/>
    </timestep>
    <timestep time="97.00">
        <vehicle id="0" x="1887.96" y="572.69" angle="99.27" type="DEFAULT_VEHTYPE" speed="0.40" pos="65.73" lane="a46_2" slope="0.00"/>
        <vehicle id="1" x="1816.75" y="1076.58" angle="313.24" type="DEFAULT_VEHTYPE" speed="5.21" pos="9.17" lane=":a44_3_0" slope="0.00"/>
        <vehicle id="2" x="1883.40" y="1164.82" angle="233.59" type="DEFAULT_VEHTYPE" speed="13.02" pos="287.15" lane="a203[0]_1" slope="0.00"/>