<?xml version="1.0" encoding="UTF-8"?>

<!-- generated on 2025-03-21 17:56:26 by Eclipse SUMO sumo Version 1.21.0
<sumoConfiguration xmlns:xsi="http://www.w3.org/2001/XMLSchema-instance" xsi:noNamespaceSchemaLocation="http://sumo.dlr.de/xsd/sumoConfiguration.xsd">

    <input>
        <net-file value="${STATICPATH}/joined_lanes.net.xml"/>
        <route-files value="${SIMULATIONPATH}/generatedRoutes.rou.xml"/>
        <additional-files value="${STATICPATH}/detectors.add.xml,${STATICPATH}/joined_vtypes.add.xml,${STATICPATH}/joined_tls.add.xml"/>
    </input>

    <output>
        <fcd-output value="${SIMULATIONPATH}/fcd.xml"/>
        <queue-output value="${SIMULATIONPATH}/queue.xml"/>
        <summary-output value="${SIMULATIONPATH}/summary.xml"/>
        <tripinfo-output value="${SIMULATIONPATH}/tripinfos.xml"/>
        <vehroute-output value="${SIMULATIONPATH}/vehroute.xml"/>
        <save-state.prefix value="configs\state"/>
    </output>

    <processing>
        <ignore-junction-blocker value="1"/>
        <ignore-route-errors value="true"/>
        <time-to-teleport value="-1"/>
    </processing>

    <report>
        <log value="C:/Users/fabio/Desktop/sumo_log.txt"/>
        <no-step-log value="true"/>
    </report>

    <emissions>
        <phemlight-path value="configs\./PHEMlight/"/>
    </emissions>

    <traci_server>
        <remote-port value="60247"/>
    </traci_server>

</sumoConfiguration>
-->

<tripinfos xmlns:xsi="http://www.w3.org/2001/XMLSchema-instance" xsi:noNamespaceSchemaLocation="http://sumo.dlr.de/xsd/tripinfo_file.xsd">
    <tripinfo id="3" depart="83.00" departLane="a195_0" departPos="5.10" departSpeed="0.00" departDelay="0.58" arrival="243.00" arrivalLane="a204[1][1]_0" arrivalPos="436.51" arrivalSpeed="14.36" duration="160.00" routeLength="2028.25" waitingTime="0.00" waitingCount="0" stopTime="0.00" timeLoss="21.40" rerouteNo="0" devices="vehroute_3 tripinfo_3 fcd_3" vType="DEFAULT_VEHTYPE" speedFactor="1.08" vaporized=""/>
    <tripinfo id="0" depart="5.00" departLane="a195_0" departPos="5.10" departSpeed="0.00" departDelay="0.55" arrival="264.00" arrivalLane="b47_0" arrivalPos="212.06" arrivalSpeed="14.17" duration="259.00" routeLength="2669.16" waitingTime="42.00" waitingCount="1" stopTime="0.00" timeLoss="73.54" rerouteNo="0" devices="vehroute_0 tripinfo_0 fcd_0" vType="DEFAULT_VEHTYPE" speedFactor="1.06" vaporized=""/>
    <tripinfo id="2" depart="73.00" departLane="a203[0]_0" departPos="5.10" departSpeed="0.00" departDelay="0.91" arrival="271.00" arrivalLane="a204b[0]_0" arrivalPos="0.20" arrivalSpeed="12.98" duration="198.00" routeLength="1830.85" waitingTime="30.00" waitingCount="4" stopTime="0.00" timeLoss="65.29" rerouteNo="0" devices="vehroute_2 tripinfo_2 fcd_2" vType="DEFAULT_VEHTYPE" speedFactor="1.01" vaporized=""/>
    <tripinfo id="1" depart="57.00" departLane="a55_0" departPos="5.10" departSpeed="0.00" departDelay="0.04" arrival="370.00" arrivalLane="b2[1][1][1]b_0" arrivalPos="325.74" arrivalSpeed="12.96" duration="313.00" routeLength="2457.31" waitingTime="91.00" waitingCount="3" stopTime="0.00" timeLoss="122.85" rerouteNo="0" devices="vehroute_1 tripinfo_1 fcd_1" vType="DEFAULT_VEHTYPE" speedFactor="0.94" vaporized=""/>
    <tripinfo id="6" depart="252.00" departLane="a203[0]_0" departPos="5.10" departSpeed="0.00" departDelay="0.25" arrival="427.00" arrivalLane="a204b[0]_0" arrivalPos="0.20" arrivalSpeed="14.23" duration="175.00" routeLength="1827.34" waitingTime="18.00" waitingCount="3" stopTime="0.00" timeLoss="47.85" rerouteNo="0" devices="vehroute_6 tripinfo_6 fcd_6" vType="DEFAULT_VEHTYPE" speedFactor="1.05" vaporized=""/>
    <tripinfo id="5" depart="228.00" departLane="a210_0" departPos="5.10" departSpeed="0.00" departDelay="0.81" arrival="438.00" arrivalLane="b55_0" arrivalPos="93.69" arrivalSpeed="11.18" duration="210.00" routeLength="1879.25" waitingTime="18.00" waitingCount="2" stopTime="0.00" timeLoss="44.68" rerouteNo="0" devices="vehroute_5 tripinfo_5 fcd_5" vType="DEFAULT_VEHTYPE" speedFactor="0.83" vaporized=""/>
    <tripinfo id="4" depart="189.00" departLane="a55_0" departPos="5.10" departSpeed="0.00" departDelay="0.58" arrival="487.00" arrivalLane="b2[1][1][1]b_0" arrivalPos="325.74" arrivalSpeed="13.26" duration="298.00" routeLength="2457.31" waitingTime="92.00" waitingCount="3" stopTime="0.00" timeLoss="124.55" rerouteNo="0" devices="vehroute_4 tripinfo_4 fcd_4" vType="DEFAULT_VEHTYPE" speedFactor="1.03" vaporized=""/>
    <tripinfo id="7" depart="320.00" departLane="a195_0" departPos="5.10" departSpeed="0.00" departDelay="0.44" arrival="550.00" arrivalLane="b2[1][1][1]b_0" arrivalPos="325.74" arrivalSpeed="11.48" duration="230.00" routeLength="2441.66" waitingTime="4.00" waitingCount="1" stopTime="0.00" timeLoss="27.79" rerouteNo="0" devices="vehroute_7 tripinfo_7 fcd_7" vType="DEFAULT_VEHTYPE" speedFactor="0.89" vaporized=""/>
    <tripinfo id="8" depart="335.00" departLane="a203[0]_0" departPos="5.10" departSpeed="0.00" departDelay="0.46" arrival="554.00" arrivalLane="a204b[0]_0" arrivalPos="0.20" arrivalSpeed="9.14" duration="219.00" routeLength="1830.85" waitingTime="42.00" waitingCount="3" stopTime="0.00" timeLoss="76.84" rerouteNo="0" devices="vehroute_8 tripinfo_8 fcd_8" vType="DEFAULT_VEHTYPE" speedFactor="0.94" vaporized=""/>
    <tripinfo id="10" depart="432.00" departLane="a195_0" departPos="5.10" departSpeed="0.00" departDelay="0.62" arrival="658.00" arrivalLane="b2[1][1][1]b_0" arrivalPos="325.74" arrivalSpeed="14.22" duration="226.00" routeLength="2441.66" waitingTime="35.00" waitingCount="2" stopTime="0.00" timeLoss="62.05" rerouteNo="0" devices="vehroute_10 tripinfo_10 fcd_10" vType="DEFAULT_VEHTYPE" speedFactor="1.09" vaporized=""/>
    <tripinfo id="11" depart="509.00" departLane="a212_0" departPos="5.10" departSpeed="0.00" departDelay="0.40" arrival="702.00" arrivalLane="b53a_0" arrivalPos="257.19" arrivalSpeed="13.88" duration="193.00" routeLength="2151.42" waitingTime="4.00" waitingCount="2" stopTime="0.00" timeLoss="38.04" rerouteNo="0" devices="vehroute_11 tripinfo_11 fcd_11" vType="DEFAULT_VEHTYPE" speedFactor="1.03" vaporized=""/>
    <tripinfo id="9" depart="424.00" departLane="a69_0" departPos="5.10" departSpeed="0.00" departDelay="0.46" arrival="747.00" arrivalLane="b2[1][1][1]b_0" arrivalPos="325.74" arrivalSpeed="11.50" duration="323.00" routeLength="3023.81" waitingTime="41.00" waitingCount="1" stopTime="0.00" timeLoss="66.30" rerouteNo="0" devices="vehroute_9 tripinfo_9 fcd_9" vType="DEFAULT_VEHTYPE" speedFactor="0.86" vaporized=""/>
    <tripinfo id="15" depart="614.00" departLane="a20001+87[1][0]_0" departPos="5.10" departSpeed="0.00" departDelay="0.28" arrival="794.00" arrivalLane="a204[1][1]_0" arrivalPos="436.51" arrivalSpeed="12.79" duration="180.00" routeLength="1471.49" waitingTime="43.00" waitingCount="2" stopTime="0.00" timeLoss="63.38" rerouteNo="0" devices="vehroute_15 tripinfo_15 fcd_15" vType="DEFAULT_VEHTYPE" speedFactor="0.93" vaporized=""/>
    <tripinfo id="12" depart="554.00" departLane="a203[0]_0" departPos="5.10" departSpeed="0.00" departDelay="0.35" arrival="808.00" arrivalLane="b28a_0" arrivalPos="130.99" arrivalSpeed="14.18" duration="254.00" routeLength="2939.06" waitingTime="15.00" waitingCount="3" stopTime="0.00" timeLoss="49.54" rerouteNo="0" devices="vehroute_12 tripinfo_12 fcd_12" vType="DEFAULT_VEHTYPE" speedFactor="1.05" vaporized=""/>
    <tripinfo id="14" depart="583.00" departLane="a212_0" departPos="5.10" departSpeed="0.00" departDelay="0.65" arrival="828.00" arrivalLane="b53a_0" arrivalPos="257.19" arrivalSpeed="12.79" duration="245.00" routeLength="2151.42" waitingTime="49.00" waitingCount="3" stopTime="0.00" timeLoss="85.05" rerouteNo="0" devices="vehroute_14 tripinfo_14 fcd_14" vType="DEFAULT_VEHTYPE" speedFactor="0.99" vaporized=""/>
    <tripinfo id="16" depart="686.00" departLane="a203[0]_0" departPos="5.10" departSpeed="0.00" departDelay="0.83" arrival="883.00" arrivalLane="a204b[0]_0" arrivalPos="0.20" arrivalSpeed="11.98" duration="197.00" routeLength="1827.34" waitingTime="25.00" waitingCount="1" stopTime="0.00" timeLoss="45.97" rerouteNo="0" devices="vehroute_16 tripinfo_16 fcd_16" vType="DEFAULT_VEHTYPE" speedFactor="0.88" vaporized=""/>
    <tripinfo id="13" depart="574.00" departLane="b26_0" departPos="5.10" departSpeed="0.00" departDelay="0.51" arrival="906.00" arrivalLane="a204[1][1]_0" arrivalPos="436.51" arrivalSpeed="14.98" duration="332.00" routeLength="2676.95" waitingTime="119.00" waitingCount="5" stopTime="0.00" timeLoss="158.68" rerouteNo="0" devices="vehroute_13 tripinfo_13 fcd_13" vType="DEFAULT_VEHTYPE" speedFactor="1.12" vaporized=""/>
    <tripinfo id="17" depart="764.00" departLane="a43[1]_0" departPos="5.10" departSpeed="0.00" departDelay="0.86" arrival="918.00" arrivalLane="a204[1][1]_0" arrivalPos="436.51" arrivalSpeed="12.76" duration="154.00" routeLength="1052.53" waitingTime="56.00" waitingCount="2" stopTime="0.00" timeLoss="72.70" rerouteNo="0" devices="vehroute_17 tripinfo_17 fcd_17" vType="DEFAULT_VEHTYPE" speedFactor="0.94" vaporized=""/>
    <tripinfo id="20" depart="831.00" departLane="a195_0" departPos="5.10" departSpeed="0.00" departDelay="0.01" arrival="1034.00" arrivalLane="b2[1][1][1]b_0" arrivalPos="325.74" arrivalSpeed="13.01" duration="203.00" routeLength="2441.66" waitingTime="0.00" waitingCount="0" stopTime="0.00" timeLoss="27.29" rerouteNo="0" devices="vehroute_20 tripinfo_20 fcd_20" vType="DEFAULT_VEHTYPE" speedFactor="1.02" vaporized=""/>
    <tripinfo id="18" depart="806.00" departLane="a203[0]_0" departPos="5.10" departSpeed="0.00" departDelay="0.99" arrival="1042.00" arrivalLane="a204b[0]_0" arrivalPos="0.20" arrivalSpeed="8.02" duration="236.00" routeLength="1830.85" waitingTime="57.00" waitingCount="4" stopTime="0.00" timeLoss="94.28" rerouteNo="0" devices="vehroute_18 tripinfo_18 fcd_18" vType="DEFAULT_VEHTYPE" speedFactor="0.94" vaporized=""/>
    <tripinfo id="19" depart="819.00" departLane="a55_0" departPos="5.10" departSpeed="0.00" departDelay="0.51" arrival="1094.00" arrivalLane="b2[1][1][1]b_0" arrivalPos="325.74" arrivalSpeed="15.20" duration="275.00" routeLength="2457.31" waitingTime="89.00" waitingCount="1" stopTime="0.00" timeLoss="120.49" rerouteNo="0" devices="vehroute_19 tripinfo_19 fcd_19" vType="DEFAULT_VEHTYPE" speedFactor="1.16" vaporized=""/>
    <tripinfo id="25" depart="977.00" departLane="a20001+87[1][0]_0" departPos="5.10" departSpeed="0.00" departDelay="0.87" arrival="1146.00" arrivalLane="a204[1][1]_0" arrivalPos="436.51" arrivalSpeed="11.66" duration="169.00" routeLength="1471.49" waitingTime="24.00" waitingCount="2" stopTime="0.00" timeLoss="45.02" rerouteNo="0" devices="vehroute_25 tripinfo_25 fcd_25" vType="DEFAULT_VEHTYPE" speedFactor="0.87" vaporized=""/>
    <tripinfo id="22" depart="878.00" departLane="a195_0" departPos="5.10" departSpeed="0.00" departDelay="0.84" arrival="1153.00" arrivalLane="b47_0" arrivalPos="212.06" arrivalSpeed="12.64" duration="275.00" routeLength="2666.20" waitingTime="35.00" waitingCount="2" stopTime="0.00" timeLoss="73.01" rerouteNo="0" devices="vehroute_22 tripinfo_22 fcd_22" vType="DEFAULT_VEHTYPE" speedFactor="0.97" vaporized=""/>
    <tripinfo id="21" depart="861.00" departLane="a195_0" departPos="5.10" departSpeed="0.00" departDelay="0.40" arrival="1167.00" arrivalLane="b2[1][1][1]b_0" arrivalPos="325.74" arrivalSpeed="13.55" duration="306.00" routeLength="2441.66" waitingTime="101.00" waitingCount="2" stopTime="0.00" timeLoss="128.50" rerouteNo="0" devices="vehroute_21 tripinfo_21 fcd_21" vType="DEFAULT_VEHTYPE" speedFactor="1.01" vaporized=""/>
    <tripinfo id="23" depart="926.00" departLane="a210_0" departPos="5.10" departSpeed="0.00" departDelay="0.63" arrival="1168.00" arrivalLane="b55_0" arrivalPos="93.69" arrivalSpeed="11.78" duration="242.00" routeLength="1876.29" waitingTime="55.00" waitingCount="4" stopTime="0.00" timeLoss="88.63" rerouteNo="0" devices="vehroute_23 tripinfo_23 fcd_23" vType="DEFAULT_VEHTYPE" speedFactor="0.89" vaporized=""/>
    <tripinfo id="26" depart="989.00" departLane="a195_0" departPos="5.10" departSpeed="0.00" departDelay="0.66" arrival="1199.00" arrivalLane="a204[1][1]_0" arrivalPos="436.51" arrivalSpeed="12.72" duration="210.00" routeLength="2028.25" waitingTime="15.00" waitingCount="2" stopTime="0.00" timeLoss="46.03" rerouteNo="0" devices="vehroute_26 tripinfo_26 fcd_26" vType="DEFAULT_VEHTYPE" speedFactor="0.92" vaporized=""/>
    <tripinfo id="27" depart="1007.00" departLane="a43[1]_0" departPos="5.10" departSpeed="0.00" departDelay="0.07" arrival="1245.00" arrivalLane="b10_0" arrivalPos="224.30" arrivalSpeed="12.48" duration="238.00" routeLength="2419.66" waitingTime="28.00" waitingCount="2" stopTime="0.00" timeLoss="54.16" rerouteNo="0" devices="vehroute_27 tripinfo_27 fcd_27" vType="DEFAULT_VEHTYPE" speedFactor="0.95" vaporized=""/>
    <tripinfo id="28" depart="1084.00" departLane="b2[1][0]_0" departPos="5.10" departSpeed="0.00" departDelay="0.93" arrival="1256.00" arrivalLane="b3[1]b_0" arrivalPos="239.77" arrivalSpeed="15.67" duration="172.00" routeLength="1737.65" waitingTime="45.00" waitingCount="1" stopTime="0.00" timeLoss="59.90" rerouteNo="0" devices="vehroute_28 tripinfo_28 fcd_28" vType="DEFAULT_VEHTYPE" speedFactor="1.13" vaporized=""/>
    <tripinfo id="24" depart="954.00" departLane="a195_0" departPos="5.10" departSpeed="0.00" departDelay="0.38" arrival="1306.00" arrivalLane="b2[1][1][1]b_0" arrivalPos="325.74" arrivalSpeed="11.47" duration="352.00" routeLength="2441.66" waitingTime="104.00" waitingCount="2" stopTime="0.00" timeLoss="135.62" rerouteNo="0" devices="vehroute_24 tripinfo_24 fcd_24" vType="DEFAULT_VEHTYPE" speedFactor="0.83" vaporized=""/>
    <tripinfo id="29" depart="1162.00" departLane="a203[0]_0" departPos="5.10" departSpeed="0.00" departDelay="0.90" arrival="1332.00" arrivalLane="a204b[0]_0" arrivalPos="0.20" arrivalSpeed="11.96" duration="170.00" routeLength="1827.34" waitingTime="5.00" waitingCount="1" stopTime="0.00" timeLoss="27.37" rerouteNo="0" devices="vehroute_29 tripinfo_29 fcd_29" vType="DEFAULT_VEHTYPE" speedFactor="0.93" vaporized=""/>
    <tripinfo id="32" depart="1228.00" departLane="a195_0" departPos="5.10" departSpeed="0.00" departDelay="0.08" arrival="1412.00" arrivalLane="a204[1][1]_0" arrivalPos="436.51" arrivalSpeed="12.73" duration="184.00" routeLength="2028.25" waitingTime="9.00" waitingCount="1" stopTime="0.00" timeLoss="35.58" rerouteNo="0" devices="vehroute_32 tripinfo_32 fcd_32" vType="DEFAULT_VEHTYPE" speedFactor="1.01" vaporized=""/>
    <tripinfo id="33" depart="1231.00" departLane="a203[0]_0" departPos="5.10" departSpeed="0.00" departDelay="0.97" arrival="1412.00" arrivalLane="a204b[0]_0" arrivalPos="0.20" arrivalSpeed="15.28" duration="181.00" routeLength="1830.85" waitingTime="28.00" waitingCount="4" stopTime="0.00" timeLoss="66.96" rerouteNo="0" devices="vehroute_33 tripinfo_33 fcd_33" vType="DEFAULT_VEHTYPE" speedFactor="1.17" vaporized=""/>
    <tripinfo id="35" depart="1247.00" departLane="a212_0" departPos="5.10" departSpeed="0.00" departDelay="0.24" arrival="1425.00" arrivalLane="b2[1][1][1]b_0" arrivalPos="325.74" arrivalSpeed="13.37" duration="178.00" routeLength="1933.04" waitingTime="20.00" waitingCount="1" stopTime="0.00" timeLoss="39.11" rerouteNo="0" devices="vehroute_35 tripinfo_35 fcd_35" vType="DEFAULT_VEHTYPE" speedFactor="1.02" vaporized=""/>
    <tripinfo id="34" depart="1237.00" departLane="b2[1][0]_0" departPos="5.10" departSpeed="0.00" departDelay="0.18" arrival="1445.00" arrivalLane="b3[1]b_0" arrivalPos="239.77" arrivalSpeed="13.49" duration="208.00" routeLength="1737.65" waitingTime="59.00" waitingCount="2" stopTime="0.00" timeLoss="80.06" rerouteNo="0" devices="vehroute_34 tripinfo_34 fcd_34" vType="DEFAULT_VEHTYPE" speedFactor="0.99" vaporized=""/>
    <tripinfo id="30" depart="1201.00" departLane="a55_0" departPos="5.10" departSpeed="0.00" departDelay="0.15" arrival="1463.00" arrivalLane="b2[1][1][1]b_0" arrivalPos="325.74" arrivalSpeed="15.62" duration="262.00" routeLength="2457.31" waitingTime="74.00" waitingCount="3" stopTime="0.00" timeLoss="109.54" rerouteNo="0" devices="vehroute_30 tripinfo_30 fcd_30" vType="DEFAULT_VEHTYPE" speedFactor="1.18" vaporized=""/>
    <tripinfo id="31" depart="1215.00" departLane="a55_0" departPos="5.10" departSpeed="0.00" departDelay="0.98" arrival="1464.00" arrivalLane="b2[1][1][1]b_1" arrivalPos="325.74" arrivalSpeed="15.62" duration="249.00" routeLength="2457.31" waitingTime="68.00" waitingCount="2" stopTime="0.00" timeLoss="94.28" rerouteNo="0" devices="vehroute_31 tripinfo_31 fcd_31" vType="DEFAULT_VEHTYPE" speedFactor="1.15" vaporized=""/>
    <tripinfo id="37" depart="1322.00" departLane="a20001+87[1][0]_0" departPos="5.10" departSpeed="0.00" departDelay="0.96" arrival="1489.00" arrivalLane="a204[1][1]_0" arrivalPos="436.51" arrivalSpeed="16.26" duration="167.00" routeLength="1471.49" waitingTime="48.00" waitingCount="3" stopTime="0.00" timeLoss="75.60" rerouteNo="0" devices="vehroute_37 tripinfo_37 fcd_37" vType="DEFAULT_VEHTYPE" speedFactor="1.18" vaporized=""/>
    <tripinfo id="36" depart="1307.00" departLane="a55_0" departPos="5.10" departSpeed="0.00" departDelay="0.40" arrival="1598.00" arrivalLane="b2[1][1][1]b_0" arrivalPos="325.74" arrivalSpeed="12.41" duration="291.00" routeLength="2457.31" waitingTime="76.00" waitingCount="3" stopTime="0.00" timeLoss="107.44" rerouteNo="0" devices="vehroute_36 tripinfo_36 fcd_36" vType="DEFAULT_VEHTYPE" speedFactor="0.97" vaporized=""/>
    <tripinfo id="40" depart="1378.00" departLane="a55_0" departPos="5.10" departSpeed="0.00" departDelay="0.91" arrival="1598.00" arrivalLane="b2[1][1][1]b_1" arrivalPos="325.74" arrivalSpeed="14.15" duration="220.00" routeLength="2457.31" waitingTime="22.00" waitingCount="1" stopTime="0.00" timeLoss="46.75" rerouteNo="0" devices="vehroute_40 tripinfo_40 fcd_40" vType="DEFAULT_VEHTYPE" speedFactor="1.03" vaporized=""/>
    <tripinfo id="44" depart="1475.00" departLane="a195_0" departPos="5.10" departSpeed="0.00" departDelay="0.88" arrival="1638.00" arrivalLane="a204[1][1]_0" arrivalPos="436.51" arrivalSpeed="14.38" duration="163.00" routeLength="2028.25" waitingTime="0.00" waitingCount="0" stopTime="0.00" timeLoss="20.32" rerouteNo="0" devices="vehroute_44 tripinfo_44 fcd_44" vType="DEFAULT_VEHTYPE" speedFactor="1.04" vaporized=""/>
    <tripinfo id="43" depart="1445.00" departLane="a212_0" departPos="5.10" departSpeed="0.00" departDelay="0.72" arrival="1645.00" arrivalLane="b2[1][1][1]b_0" arrivalPos="325.74" arrivalSpeed="14.40" duration="200.00" routeLength="1926.61" waitingTime="40.00" waitingCount="2" stopTime="0.00" timeLoss="63.74" rerouteNo="0" devices="vehroute_43 tripinfo_43 fcd_43" vType="DEFAULT_VEHTYPE" speedFactor="1.04" vaporized=""/>
    <tripinfo id="41" depart="1408.00" departLane="a212_0" departPos="5.10" departSpeed="0.00" departDelay="0.25" arrival="1651.00" arrivalLane="b2[1][1][1]b_0" arrivalPos="325.74" arrivalSpeed="12.42" duration="243.00" routeLength="1933.04" waitingTime="76.00" waitingCount="1" stopTime="0.00" timeLoss="94.59" rerouteNo="0" devices="vehroute_41 tripinfo_41 fcd_41" vType="DEFAULT_VEHTYPE" speedFactor="0.96" vaporized=""/>
    <tripinfo id="38" depart="1363.00" departLane="a69_0" departPos="5.10" departSpeed="0.00" departDelay="0.48" arrival="1725.00" arrivalLane="b2[1][1][1]b_0" arrivalPos="325.74" arrivalSpeed="14.27" duration="362.00" routeLength="3023.81" waitingTime="116.00" waitingCount="4" stopTime="0.00" timeLoss="162.06" rerouteNo="0" devices="vehroute_38 tripinfo_38 fcd_38" vType="DEFAULT_VEHTYPE" speedFactor="1.10" vaporized=""/>
    <tripinfo id="39" depart="1372.00" departLane="a55_0" departPos="5.10" departSpeed="0.00" departDelay="0.73" arrival="1729.00" arrivalLane="b2[1][1][1]b_0" arrivalPos="325.74" arrivalSpeed="12.12" duration="357.00" routeLength="2457.31" waitingTime="122.00" waitingCount="3" stopTime="0.00" timeLoss="158.81" rerouteNo="0" devices="vehroute_39 tripinfo_39 fcd_39" vType="DEFAULT_VEHTYPE" speedFactor="0.90" vaporized=""/>
    <tripinfo id="45" depart="1522.00" departLane="a195_0" departPos="5.10" departSpeed="0.00" departDelay="0.32" arrival="1766.00" arrivalLane="b2[1][1][1]b_0" arrivalPos="325.74" arrivalSpeed="14.17" duration="244.00" routeLength="2441.66" waitingTime="55.00" waitingCount="1" stopTime="0.00" timeLoss="79.62" rerouteNo="0" devices="vehroute_45 tripinfo_45 fcd_45" vType="DEFAULT_VEHTYPE" speedFactor="1.09" vaporized=""/>
    <tripinfo id="47" depart="1594.00" departLane="a203[0]_0" departPos="5.10" departSpeed="0.00" departDelay="0.22" arrival="1781.00" arrivalLane="a204b[0]_2" arrivalPos="0.20" arrivalSpeed="12.22" duration="187.00" routeLength="1827.34" waitingTime="9.00" waitingCount="2" stopTime="0.00" timeLoss="39.00" rerouteNo="0" devices="vehroute_47 tripinfo_47 fcd_47" vType="DEFAULT_VEHTYPE" speedFactor="0.90" vaporized=""/>
    <tripinfo id="48" depart="1605.00" departLane="a20001+87[1][0]_0" departPos="5.10" departSpeed="0.00" departDelay="0.15" arrival="1791.00" arrivalLane="a204[1][1]_0" arrivalPos="436.51" arrivalSpeed="11.23" duration="186.00" routeLength="1467.00" waitingTime="42.00" waitingCount="2" stopTime="0.00" timeLoss="62.26" rerouteNo="0" devices="vehroute_48 tripinfo_48 fcd_48" vType="DEFAULT_VEHTYPE" speedFactor="0.88" vaporized=""/>
    <tripinfo id="42" depart="1430.00" departLane="a55_0" departPos="5.10" departSpeed="0.00" departDelay="0.16" arrival="1850.00" arrivalLane="b2[1][1][1]b_0" arrivalPos="325.74" arrivalSpeed="15.16" duration="420.00" routeLength="2457.31" waitingTime="215.00" waitingCount="5" stopTime="0.00" timeLoss="256.51" rerouteNo="0" devices="vehroute_42 tripinfo_42 fcd_42" vType="DEFAULT_VEHTYPE" speedFactor="1.09" vaporized=""/>
    <tripinfo id="46" depart="1593.00" departLane="a195_0" departPos="5.10" departSpeed="0.00" departDelay="0.32" arrival="1872.00" arrivalLane="b47_0" arrivalPos="212.06" arrivalSpeed="13.68" duration="279.00" routeLength="2669.16" waitingTime="45.00" waitingCount="1" stopTime="0.00" timeLoss="81.90" rerouteNo="0" devices="vehroute_46 tripinfo_46 fcd_46" vType="DEFAULT_VEHTYPE" speedFactor="1.00" vaporized=""/>
    <tripinfo id="49" depart="1607.00" departLane="a195_0" departPos="5.10" departSpeed="0.00" departDelay="0.13" arrival="1906.00" arrivalLane="b2[1][1][1]b_0" arrivalPos="325.74" arrivalSpeed="10.83" duration="299.00" routeLength="2441.66" waitingTime="62.00" waitingCount="1" stopTime="0.00" timeLoss="89.25" rerouteNo="0" devices="vehroute_49 tripinfo_49 fcd_49" vType="DEFAULT_VEHTYPE" speedFactor="0.85" vaporized=""/>
    <tripinfo id="51" depart="1710.00" departLane="a43[1]_0" departPos="5.10" departSpeed="0.00" departDelay="0.41" arrival="1908.00" arrivalLane="b10_0" arrivalPos="224.30" arrivalSpeed="14.98" duration="198.00" routeLength="2416.70" waitingTime="21.00" waitingCount="1" stopTime="0.00" timeLoss="48.19" rerouteNo="0" devices="vehroute_51 tripinfo_51 fcd_51" vType="DEFAULT_VEHTYPE" speedFactor="1.17" vaporized=""/>
    <tripinfo id="50" depart="1645.00" departLane="a69_0" departPos="5.10" departSpeed="0.00" departDelay="0.31" arrival="1988.00" arrivalLane="b2[1][1][1]b_0" arrivalPos="325.74" arrivalSpeed="10.72" duration="343.00" routeLength="3025.34" waitingTime="44.00" waitingCount="5" stopTime="0.00" timeLoss="85.07" rerouteNo="0" devices="vehroute_50 tripinfo_50 fcd_50" vType="DEFAULT_VEHTYPE" speedFactor="0.85" vaporized=""/>
    <tripinfo id="54" depart="1836.00" departLane="a195_0" departPos="5.10" departSpeed="0.00" departDelay="0.99" arrival="2005.00" arrivalLane="a204[1][1]_0" arrivalPos="436.51" arrivalSpeed="13.56" duration="169.00" routeLength="2028.25" waitingTime="0.00" waitingCount="0" stopTime="0.00" timeLoss="20.52" rerouteNo="0" devices="vehroute_54 tripinfo_54 fcd_54" vType="DEFAULT_VEHTYPE" speedFactor="1.00" vaporized=""/>
    <tripinfo id="53" depart="1825.00" departLane="a212_0" departPos="5.10" departSpeed="0.00" departDelay="0.38" arrival="2016.00" arrivalLane="b53a_0" arrivalPos="257.19" arrivalSpeed="14.43" duration="191.00" routeLength="2151.42" waitingTime="18.00" waitingCount="2" stopTime="0.00" timeLoss="47.23" rerouteNo="0" devices="vehroute_53 tripinfo_53 fcd_53" vType="DEFAULT_VEHTYPE" speedFactor="1.10" vaporized=""/>
    <tripinfo id="52" depart="1805.00" departLane="b45_0" departPos="5.10" departSpeed="0.00" departDelay="0.85" arrival="2046.00" arrivalLane="a204[1][1]_0" arrivalPos="436.51" arrivalSpeed="13.71" duration="241.00" routeLength="2363.64" waitingTime="38.00" waitingCount="3" stopTime="0.00" timeLoss="71.41" rerouteNo="0" devices="vehroute_52 tripinfo_52 fcd_52" vType="DEFAULT_VEHTYPE" speedFactor="1.02" vaporized=""/>
    <tripinfo id="55" depart="1917.00" departLane="a210_0" departPos="5.10" departSpeed="0.00" departDelay="0.07" arrival="2113.00" arrivalLane="b55_0" arrivalPos="93.69" arrivalSpeed="13.64" duration="196.00" routeLength="1879.25" waitingTime="33.00" waitingCount="2" stopTime="0.00" timeLoss="57.16" rerouteNo="0" devices="vehroute_55 tripinfo_55 fcd_55" vType="DEFAULT_VEHTYPE" speedFactor="1.00" vaporized=""/>
    <tripinfo id="57" depart="2040.00" departLane="a203[0]_0" departPos="5.10" departSpeed="0.00" departDelay="0.33" arrival="2225.00" arrivalLane="a204b[0]_0" arrivalPos="0.20" arrivalSpeed="15.51" duration="185.00" routeLength="1830.85" waitingTime="38.00" waitingCount="3" stopTime="0.00" timeLoss="67.75" rerouteNo="0" devices="vehroute_57 tripinfo_57 fcd_57" vType="DEFAULT_VEHTYPE" speedFactor="1.14" vaporized=""/>
    <tripinfo id="56" depart="1944.00" departLane="a55_0" departPos="5.10" departSpeed="0.00" departDelay="0.96" arrival="2227.00" arrivalLane="b2[1][1][1]b_0" arrivalPos="325.74" arrivalSpeed="11.40" duration="283.00" routeLength="2457.31" waitingTime="45.00" waitingCount="4" stopTime="0.00" timeLoss="84.08" rerouteNo="0" devices="vehroute_56 tripinfo_56 fcd_56" vType="DEFAULT_VEHTYPE" speedFactor="0.90" vaporized=""/>
    <tripinfo id="60" depart="2071.00" departLane="a43[1]_0" departPos="5.10" departSpeed="0.00" departDelay="0.41" arrival="2269.00" arrivalLane="b10_0" arrivalPos="224.30" arrivalSpeed="14.12" duration="198.00" routeLength="2419.66" waitingTime="7.00" waitingCount="2" stopTime="0.00" timeLoss="36.42" rerouteNo="0" devices="vehroute_60 tripinfo_60 fcd_60" vType="DEFAULT_VEHTYPE" speedFactor="1.08" vaporized=""/>
    <tripinfo id="66" depart="2191.00" departLane="a43[1]_0" departPos="5.10" departSpeed="0.00" departDelay="0.45" arrival="2290.00" arrivalLane="a204[1][1]_0" arrivalPos="436.51" arrivalSpeed="12.55" duration="99.00" routeLength="1052.53" waitingTime="2.00" waitingCount="1" stopTime="0.00" timeLoss="14.71" rerouteNo="0" devices="vehroute_66 tripinfo_66 fcd_66" vType="DEFAULT_VEHTYPE" speedFactor="0.91" vaporized=""/>
    <tripinfo id="59" depart="2069.00" departLane="a203[0]_0" departPos="5.10" departSpeed="0.00" departDelay="0.49" arrival="2324.00" arrivalLane="a204b[0]_0" arrivalPos="0.20" arrivalSpeed="8.06" duration="255.00" routeLength="1827.34" waitingTime="88.00" waitingCount="3" stopTime="0.00" timeLoss="118.14" rerouteNo="0" devices="vehroute_59 tripinfo_59 fcd_59" vType="DEFAULT_VEHTYPE" speedFactor="0.97" vaporized=""/>
    <tripinfo id="61" depart="2090.00" departLane="a203[0]_0" departPos="5.10" departSpeed="0.00" departDelay="0.29" arrival="2324.00" arrivalLane="a204b[0]_2" arrivalPos="0.20" arrivalSpeed="7.21" duration="234.00" routeLength="1830.85" waitingTime="83.00" waitingCount="3" stopTime="0.00" timeLoss="115.10" rerouteNo="0" devices="vehroute_61 tripinfo_61 fcd_61" vType="DEFAULT_VEHTYPE" speedFactor="1.12" vaporized=""/>
    <tripinfo id="63" depart="2145.00" departLane="a210_0" departPos="5.10" departSpeed="0.00" departDelay="0.30" arrival="2331.00" arrivalLane="b55_0" arrivalPos="93.69" arrivalSpeed="13.61" duration="186.00" routeLength="1879.25" waitingTime="22.00" waitingCount="2" stopTime="0.00" timeLoss="47.29" rerouteNo="0" devices="vehroute_63 tripinfo_63 fcd_63" vType="DEFAULT_VEHTYPE" speedFactor="0.99" vaporized=""/>
    <tripinfo id="62" depart="2135.00" departLane="a153_0" departPos="5.10" departSpeed="0.00" departDelay="0.88" arrival="2351.00" arrivalLane="b2[1][1][1]b_0" arrivalPos="325.74" arrivalSpeed="13.12" duration="216.00" routeLength="2005.63" waitingTime="43.00" waitingCount="2" stopTime="0.00" timeLoss="70.87" rerouteNo="0" devices="vehroute_62 tripinfo_62 fcd_62" vType="DEFAULT_VEHTYPE" speedFactor="1.02" vaporized=""/>
    <tripinfo id="58" depart="2063.00" departLane="b26_0" departPos="5.10" departSpeed="0.00" departDelay="0.05" arrival="2373.00" arrivalLane="a204[1][1]_0" arrivalPos="436.51" arrivalSpeed="13.18" duration="310.00" routeLength="2676.95" waitingTime="82.00" waitingCount="4" stopTime="0.00" timeLoss="119.92" rerouteNo="0" devices="vehroute_58 tripinfo_58 fcd_58" vType="DEFAULT_VEHTYPE" speedFactor="1.02" vaporized=""/>
    <tripinfo id="65" depart="2172.00" departLane="b2[1][0]_0" departPos="5.10" departSpeed="0.00" departDelay="0.41" arrival="2416.00" arrivalLane="b3[1]b_0" arrivalPos="239.77" arrivalSpeed="10.98" duration="244.00" routeLength="1737.65" waitingTime="73.00" waitingCount="3" stopTime="0.00" timeLoss="99.72" rerouteNo="0" devices="vehroute_65 tripinfo_65 fcd_65" vType="DEFAULT_VEHTYPE" speedFactor="0.88" vaporized=""/>
    <tripinfo id="67" depart="2222.00" departLane="a43[1]_0" departPos="5.10" departSpeed="0.00" departDelay="0.24" arrival="2427.00" arrivalLane="b10_0" arrivalPos="224.30" arrivalSpeed="11.46" duration="205.00" routeLength="2419.66" waitingTime="0.00" waitingCount="0" stopTime="0.00" timeLoss="13.47" rerouteNo="0" devices="vehroute_67 tripinfo_67 fcd_67" vType="DEFAULT_VEHTYPE" speedFactor="0.91" vaporized=""/>