<?xml version="1.0" encoding="UTF-8"?>

<!-- generated on 2025-03-21 17:56:26 by Eclipse SUMO sumo Version 1.21.0
<sumoConfiguration xmlns:xsi="http://www.w3.org/2001/XMLSchema-instance" xsi:noNamespaceSchemaLocation="http://sumo.dlr.de/xsd/sumoConfiguration.xsd">

    <input>
        <net-file value="${STATICPATH}/joined_lanes.net.xml"/>
        <route-files value="${SIMULATIONPATH}/generatedRoutes.rou.xml"/>
        <additional-files value="${STATICPATH}/detectors.add.xml,${STATICPATH}/joined_vtypes.add.xml,${STATICPATH}/joined_tls.add.xml"/>
    </input>

    <output>
        <fcd-output value="${SIMULATIONPATH}/fcd.xml"/>
        <queue-output value="${SIMULATIONPATH}/queue.xml"/>
        <summary-output value="${SIMULATIONPATH}/summary.xml"/>
        <tripinfo-output value="${SIMULATIONPATH}/tripinfos.xml"/>
        <vehroute-output value="${SIMULATIONPATH}/vehroute.xml"/>
        <save-state.prefix value="configs\state"/>
    </output>

    <processing>
        <ignore-junction-blocker value="1"/>
        <ignore-route-errors value="true"/>
        <time-to-teleport value="-1"/>
    </processing>

    <report>
        <log value="C:/Users/fabio/Desktop/sumo_log.txt"/>
        <no-step-log value="true"/>
    </report>

    <emissions>
        <phemlight-path value="configs\./PHEMlight/"/>
    </emissions>

    <traci_server>
        <remote-port value="60247"/>
    </traci_server>

</sumoConfiguration>
-->

<routes xmlns:xsi="http://www.w3.org/2001/XMLSchema-instance" xsi:noNamespaceSchemaLocation="http://sumo.dlr.de/xsd/routes_file.xsd">
    <vehicle id="3" depart="83.00" arrival="243.00">
        <route edges="a195 a61 a58[0] a58[1] a66 a119 a116 a46 a201 a201c a204a[0] a204b[0] a204[1][0] a204[1][1]"/>
    </vehicle>

    <vehicle id="0" depart="5.00" arrival="264.00">
        <route edges="a195 a61 a58[0] a58[1] a66 a119 a116 a46 a201 a201c a204a[0] a124 b12 b50[0] b50[1] b50[1]a b47"/>
    </vehicle>

    <vehicle id="2" depart="73.00" arrival="271.00">
        <route edges="a203[0] a203[1] a203[1]b a202 a34 a134 a134b a133 a31 a201 a201c a204a[0] a204b[0]"/>
    </vehicle>

    <vehicle id="1" depart="57.00" arrival="370.00">
        <route edges="a55 a55b a125 b12 b50[0] b50[1] b50[1]a a181 a18 a17 a71 b2[0] b2[1][0] b2[1][1][0] b2[1][1][1] b2[1][1][1]b"/>
    </vehicle>

    <vehicle id="6" depart="252.00" arrival="427.00">
        <route edges="a203[0] a203[1] a203[1]b a202 a34 a134 a134b a133 a31 a201 a201c a204a[0] a204b[0]"/>
    </vehicle>

    <vehicle id="5" depart="228.00" arrival="438.00">
        <route edges="a210 a43[0] a43[1] a201 a201c a204a[0] a124 b12 b50[0] b50[1] b49[1] b55"/>
    </vehicle>

    <vehicle id="4" depart="189.00" arrival="487.00">
        <route edges="a55 a55b a125 b12 b50[0] b50[1] b50[1]a a181 a18 a17 a71 b2[0] b2[1][0] b2[1][1][0] b2[1][1][1] b2[1][1][1]b"/>
    </vehicle>

    <vehicle id="7" depart="320.00" arrival="550.00">
        <route edges="a195 a159 a42 a39 a35 a38 a15 a24 a22 a59 a53cd a53[0] a53[1][0] a79 a68 a11 b2[0] b2[1][0] b2[1][1][0] b2[1][1][1] b2[1][1][1]b"/>
    </vehicle>

    <vehicle id="8" depart="335.00" arrival="554.00">
        <route edges="a203[0] a203[1] a203[1]b a202 a34 a134 a134b a133 a31 a201 a201c a204a[0] a204b[0]"/>
    </vehicle>

    <vehicle id="10" depart="432.00" arrival="658.00">
        <route edges="a195 a159 a42 a39 a35 a38 a15 a24 a22 a59 a53cd a53[0] a53[1][0] a79 a68 a11 b2[0] b2[1][0] b2[1][1][0] b2[1][1][1] b2[1][1][1]b"/>
    </vehicle>

    <vehicle id="11" depart="509.00" arrival="702.00">
        <route edges="a212 a10 a13 a104 a24 a22 a59 a53cd a53[0] a53[1][0] a79 a68 a11 b38[0] b38[0]a b38[1][0] b96 b49[1] b55 b53 b53a"/>
    </vehicle>

    <vehicle id="9" depart="424.00" arrival="747.00">
        <route edges="a69 a161 a122 a1b a1 a204a[0] a124 b12 b50[0] b50[1] b50[1]a a181 a18 a17 a71 b2[0] b2[1][0] b2[1][1][0] b2[1][1][1] b2[1][1][1]b"/>
    </vehicle>

    <vehicle id="15" depart="614.00" arrival="794.00">
        <route edges="a20001+87[1][0] a87[1][1] am90 a171 a161 a122 a1b a1 a204a[0] a204b[0] a204[1][0] a204[1][1]"/>
    </vehicle>

    <vehicle id="12" depart="554.00" arrival="808.00">
        <route edges="a203[0] b12 b56[0] b39[0] b39[1][0] b39[1][1][0] b37 b26 b26.-170 b15 b13[1] b4[0] b28 b28a"/>
    </vehicle>

    <vehicle id="14" depart="583.00" arrival="828.00">
        <route edges="a212 a10 a13 a104 a24 a22 a59 a53cd a53[0] a53[1][0] a79 a68 a11 b38[0] b38[0]a b38[1][0] b96 b49[1] b55 b53 b53a"/>
    </vehicle>

    <vehicle id="16" depart="686.00" arrival="883.00">
        <route edges="a203[0] a203[1] a203[1]b a202 a34 a134 a134b a133 a31 a201 a201c a204a[0] a204b[0]"/>
    </vehicle>

    <vehicle id="13" depart="574.00" arrival="906.00">
        <route edges="b26 b26.-170 b18 b20+19a ba1[1] b1[1] a72[0] a72[1] a69 a161 a122 a1b a1 a204a[0] a204b[0] a204[1][0] a204[1][1]"/>
    </vehicle>

    <vehicle id="17" depart="764.00" arrival="918.00">
        <route edges="a43[1] a201 a201c a204a[0] a204b[0] a204[1][0] a204[1][1]"/>
    </vehicle>

    <vehicle id="20" depart="831.00" arrival="1034.00">
        <route edges="a195 a159 a42 a39 a35 a38 a15 a24 a22 a59 a53cd a53[0] a53[1][0] a79 a68 a11 b2[0] b2[1][0] b2[1][1][0] b2[1][1][1] b2[1][1][1]b"/>
    </vehicle>

    <vehicle id="18" depart="806.00" arrival="1042.00">
        <route edges="a203[0] a203[1] a203[1]b a202 a34 a134 a134b a133 a31 a201 a201c a204a[0] a204b[0]"/>
    </vehicle>

    <vehicle id="19" depart="819.00" arrival="1094.00">
        <route edges="a55 a55b a125 b12 b50[0] b50[1] b50[1]a a181 a18 a17 a71 b2[0] b2[1][0] b2[1][1][0] b2[1][1][1] b2[1][1][1]b"/>
    </vehicle>

    <vehicle id="25" depart="977.00" arrival="1146.00">
        <route edges="a20001+87[1][0] a87[1][1] am90 a171 a161 a122 a1b a1 a204a[0] a204b[0] a204[1][0] a204[1][1]"/>
    </vehicle>

    <vehicle id="22" depart="878.00" arrival="1153.00">
        <route edges="a195 a61 a58[0] a58[1] a66 a119 a116 a46 a201 a201c a204a[0] a124 b12 b50[0] b50[1] b50[1]a b47"/>
    </vehicle>

    <vehicle id="21" depart="861.00" arrival="1167.00">
        <route edges="a195 a159 a42 a39 a35 a38 a15 a24 a22 a59 a53cd a53[0] a53[1][0] a79 a68 a11 b2[0] b2[1][0] b2[1][1][0] b2[1][1][1] b2[1][1][1]b"/>
    </vehicle>

    <vehicle id="23" depart="926.00" arrival="1168.00">
        <route edges="a210 a43[0] a43[1] a201 a201c a204a[0] a124 b12 b50[0] b50[1] b49[1] b55"/>
    </vehicle>

    <vehicle id="26" depart="989.00" arrival="1199.00">
        <route edges="a195 a61 a58[0] a58[1] a66 a119 a116 a46 a201 a201c a204a[0] a204b[0] a204[1][0] a204[1][1]"/>
    </vehicle>

    <vehicle id="27" depart="1007.00" arrival="1245.00">
        <route edges="a43[1] a201 a201c a204a[0] a124 b12 b56[0] b56[1][0] b56[1][1] b5[1][0]+66 b5[1][1][1] b8 b10"/>
    </vehicle>

    <vehicle id="28" depart="1084.00" arrival="1256.00">
        <route edges="b2[1][0] b24 b23 b17[0] b17[1] b8 b3[1] b3[1]b"/>
    </vehicle>

    <vehicle id="24" depart="954.00" arrival="1306.00">
        <route edges="a195 a159 a42 a39 a35 a38 a15 a24 a22 a59 a53cd a53[0] a53[1][0] a79 a68 a11 b2[0] b2[1][0] b2[1][1][0] b2[1][1][1] b2[1][1][1]b"/>
    </vehicle>

    <vehicle id="29" depart="1162.00" arrival="1332.00">
        <route edges="a203[0] a203[1] a203[1]b a202 a34 a134 a134b a133 a31 a201 a201c a204a[0] a204b[0]"/>
    </vehicle>

    <vehicle id="32" depart="1228.00" arrival="1412.00">
        <route edges="a195 a61 a58[0] a58[1] a66 a119 a116 a46 a201 a201c a204a[0] a204b[0] a204[1][0] a204[1][1]"/>
    </vehicle>

    <vehicle id="33" depart="1231.00" arrival="1412.00">
        <route edges="a203[0] a203[1] a203[1]b a202 a34 a134 a134b a133 a31 a201 a201c a204a[0] a204b[0]"/>
    </vehicle>

    <vehicle id="35" depart="1247.00" arrival="1425.00">
        <route edges="a212 a10 a13 a104 a24 a22 a59 a53cd a53[0] a53[1][0] a79 a68 a11 b2[0] b2[1][0] b2[1][1][0] b2[1][1][1] b2[1][1][1]b"/>
    </vehicle>

    <vehicle id="34" depart="1237.00" arrival="1445.00">
        <route edges="b2[1][0] b24 b23 b17[0] b17[1] b8 b3[1] b3[1]b"/>
    </vehicle>

    <vehicle id="30" depart="1201.00" arrival="1463.00">
        <route edges="a55 a55b a125 b12 b50[0] b50[1] b50[1]a a181 a18 a17 a71 b2[0] b2[1][0] b2[1][1][0] b2[1][1][1] b2[1][1][1]b"/>
    </vehicle>

    <vehicle id="31" depart="1215.00" arrival="1464.00">
        <route edges="a55 a55b a125 b12 b50[0] b50[1] b50[1]a a181 a18 a17 a71 b2[0] b2[1][0] b2[1][1][0] b2[1][1][1] b2[1][1][1]b"/>
    </vehicle>

    <vehicle id="37" depart="1322.00" arrival="1489.00">
        <route edges="a20001+87[1][0] a87[1][1] am90 a171 a161 a122 a1b a1 a204a[0] a204b[0] a204[1][0] a204[1][1]"/>
    </vehicle>

    <vehicle id="36" depart="1307.00" arrival="1598.00">
        <route edges="a55 a55b a125 b12 b50[0] b50[1] b50[1]a a181 a18 a17 a71 b2[0] b2[1][0] b2[1][1][0] b2[1][1][1] b2[1][1][1]b"/>
    </vehicle>

    <vehicle id="40" depart="1378.00" arrival="1598.00">
        <route edges="a55 a55b a125 b12 b50[0] b50[1] b50[1]a a181 a18 a17 a71 b2[0] b2[1][0] b2[1][1][0] b2[1][1][1] b2[1][1][1]b"/>
    </vehicle>

    <vehicle id="44" depart="1475.00" arrival="1638.00">
        <route edges="a195 a61 a58[0] a58[1] a66 a119 a116 a46 a201 a201c a204a[0] a204b[0] a204[1][0] a204[1][1]"/>
    </vehicle>

    <vehicle id="43" depart="1445.00" arrival="1645.00">
        <route edges="a212 a10 a13 a104 a24 a22 a59 a53cd a53[0] a53[1][0] a79 a68 a11 b2[0] b2[1][0] b2[1][1][0] b2[1][1][1] b2[1][1][1]b"/>
    </vehicle>

    <vehicle id="41" depart="1408.00" arrival="1651.00">
        <route edges="a212 a10 a13 a104 a24 a22 a59 a53cd a53[0] a53[1][0] a79 a68 a11 b2[0] b2[1][0] b2[1][1][0] b2[1][1][1] b2[1][1][1]b"/>
    </vehicle>

    <vehicle id="38" depart="1363.00" arrival="1725.00">
        <route edges="a69 a161 a122 a1b a1 a204a[0] a124 b12 b50[0] b50[1] b50[1]a a181 a18 a17 a71 b2[0] b2[1][0] b2[1][1][0] b2[1][1][1] b2[1][1][1]b"/>
    </vehicle>

    <vehicle id="39" depart="1372.00" arrival="1729.00">
        <route edges="a55 a55b a125 b12 b50[0] b50[1] b50[1]a a181 a18 a17 a71 b2[0] b2[1][0] b2[1][1][0] b2[1][1][1] b2[1][1][1]b"/>
    </vehicle>

    <vehicle id="45" depart="1522.00" arrival="1766.00">
        <route edges="a195 a159 a42 a39 a35 a38 a15 a24 a22 a59 a53cd a53[0] a53[1][0] a79 a68 a11 b2[0] b2[1][0] b2[1][1][0] b2[1][1][1] b2[1][1][1]b"/>
    </vehicle>

    <vehicle id="47" depart="1594.00" arrival="1781.00">
        <route edges="a203[0] a203[1] a203[1]b a202 a34 a134 a134b a133 a31 a201 a201c a204a[0] a204b[0]"/>
    </vehicle>

    <vehicle id="48" depart="1605.00" arrival="1791.00">
        <route edges="a20001+87[1][0] a87[1][1] am90 a171 a161 a122 a1b a1 a204a[0] a204b[0] a204[1][0] a204[1][1]"/>
    </vehicle>

    <vehicle id="42" depart="1430.00" arrival="1850.00">
        <route edges="a55 a55b a125 b12 b50[0] b50[1] b50[1]a a181 a18 a17 a71 b2[0] b2[1][0] b2[1][1][0] b2[1][1][1] b2[1][1][1]b"/>
    </vehicle>

    <vehicle id="46" depart="1593.00" arrival="1872.00">
        <route edges="a195 a61 a58[0] a58[1] a66 a119 a116 a46 a201 a201c a204a[0] a124 b12 b50[0] b50[1] b50[1]a b47"/>
    </vehicle>

    <vehicle id="49" depart="1607.00" arrival="1906.00">
        <route edges="a195 a159 a42 a39 a35 a38 a15 a24 a22 a59 a53cd a53[0] a53[1][0] a79 a68 a11 b2[0] b2[1][0] b2[1][1][0] b2[1][1][1] b2[1][1][1]b"/>
    </vehicle>

    <vehicle id="51" depart="1710.00" arrival="1908.00">
        <route edges="a43[1] a201 a201c a204a[0] a124 b12 b56[0] b56[1][0] b56[1][1] b5[1][0]+66 b5[1][1][1] b8 b10"/>
    </vehicle>

    <vehicle id="50" depart="1645.00" arrival="1988.00">
        <route edges="a69 a161 a122 a1b a1 a204a[0] a124 b12 b50[0] b50[1] b50[1]a a181 a18 a17 a71 b2[0] b2[1][0] b2[1][1][0] b2[1][1][1] b2[1][1][1]b"/>
    </vehicle>

    <vehicle id="54" depart="1836.00" arrival="2005.00">
        <route edges="a195 a61 a58[0] a58[1] a66 a119 a116 a46 a201 a201c a204a[0] a204b[0] a204[1][0] a204[1][1]"/>
    </vehicle>

    <vehicle id="53" depart="1825.00" arrival="2016.00">
        <route edges="a212 a10 a13 a104 a24 a22 a59 a53cd a53[0] a53[1][0] a79 a68 a11 b38[0] b38[0]a b38[1][0] b96 b49[1] b55 b53 b53a"/>
    </vehicle>

    <vehicle id="52" depart="1805.00" arrival="2046.00">
        <route edges="b45 a67 a80 a127 a77[1][0] a77ab a77bc a77cd a53cd a53[0] a78[1][1] a189[0] a189[1][0]+20000 a189[1][1] a191 a69 a161 a122 a1b a1 a204a[0] a204b[0] a204[1][0] a204[1][1]"/>
    </vehicle>

    <vehicle id="55" depart="1917.00" arrival="2113.00">
        <route edges="a210 a43[0] a43[1] a201 a201c a204a[0] a124 b12 b50[0] b50[1] b49[1] b55"/>
    </vehicle>

    <vehicle id="57" depart="2040.00" arrival="2225.00">
        <route edges="a203[0] a203[1] a203[1]b a202 a34 a134 a134b a133 a31 a201 a201c a204a[0] a204b[0]"/>
    </vehicle>

    <vehicle id="56" depart="1944.00" arrival="2227.00">
        <route edges="a55 a55b a125 b12 b50[0] b50[1] b50[1]a a181 a18 a17 a71 b2[0] b2[1][0] b2[1][1][0] b2[1][1][1] b2[1][1][1]b"/>
    </vehicle>

    <vehicle id="60" depart="2071.00" arrival="2269.00">
        <route edges="a43[1] a201 a201c a204a[0] a124 b12 b56[0] b56[1][0] b56[1][1] b5[1][0]+66 b5[1][1][1] b8 b10"/>
    </vehicle>

    <vehicle id="66" depart="2191.00" arrival="2290.00">
        <route edges="a43[1] a201 a201c a204a[0] a204b[0] a204[1][0] a204[1][1]"/>
    </vehicle>

    <vehicle id="59" depart="2069.00" arrival="2324.00">
        <route edges="a203[0] a203[1] a203[1]b a202 a34 a134 a134b a133 a31 a201 a201c a204a[0] a204b[0]"/>
    </vehicle>

    <vehicle id="61" depart="2090.00" arrival="2324.00">
        <route edges="a203[0] a203[1] a203[1]b a202 a34 a134 a134b a133 a31 a201 a201c a204a[0] a204b[0]"/>
    </vehicle>

    <vehicle id="63" depart="2145.00" arrival="2331.00">
        <route edges="a210 a43[0] a43[1] a201 a201c a204a[0] a124 b12 b50[0] b50[1] b49[1] b55"/>
    </vehicle>

    <vehicle id="62" depart="2135.00" arrival="2351.00">
        <route edges="a153 a87[0] a20001+87[1][0] a87[1][1] am90 am91 a88 a187 a191 a17 a71 b2[0] b2[1][0] b2[1][1][0] b2[1][1][1] b2[1][1][1]b"/>
    </vehicle>

    <vehicle id="58" depart="2063.00" arrival="2373.00">
        <route edges="b26 b26.-170 b18 b20+19a ba1[1] b1[1] a72[0] a72[1] a69 a161 a122 a1b a1 a204a[0] a204b[0] a204[1][0] a204[1][1]"/>
    </vehicle>

    <vehicle id="65" depart="2172.00" arrival="2416.00">
        <route edges="b2[1][0] b24 b23 b17[0] b17[1] b8 b3[1] b3[1]b"/>
    </vehicle>

    <vehicle id="67" depart="2222.00" arrival="2427.00">
        <route edges="a43[1] a201 a201c a204a[0] a124 b12 b56[0] b56[1][0] b56[1][1] b5[1][0]+66 b5[1][1][1] b8 b10"/>
    </vehicle>

    <vehicle id="70" depart="2305.00" arrival="2455.00">
        <route edges="a210 a43[0] a43[1] a201 a201c a204a[0] a124 b12 b50[0] b50[1] b49[1] b55"/>
    </vehicle>

    <vehicle id="68" depart="2261.00" arrival="2506.00">
        <route edges="a212 a10 a13 a104 a24 a22 a59 a53cd a53[0] a53[1][0] a79 a68 a11 b2[0] b2[1][0] b2[1][1][0] b2[1][1][1] b2[1][1][1]b"/>
    </vehicle>

    <vehicle id="71" depart="2324.00" arrival="2510.00">
        <route edges="a212 a10 a13 a104 a24 a22 a59 a53cd a53[0] a53[1][0] a79 a68 a11 b2[0] b2[1][0] b2[1][1][0] b2[1][1][1] b2[1][1][1]b"/>
    </vehicle>

    <vehicle id="69" depart="2286.00" arrival="2528.00">
        <route edges="a203[0] a203[1] a203[1]b a202 a34 a134 a134b a133 a31 a201 a201c a204a[0] a204b[0]"/>
    </vehicle>

    <vehicle id="64" depart="2150.00" arrival="2529.00">
        <route edges="b26 b26.-170 b18 b20+19a ba1[1] b1[1] a72[0] a72[1] a69 a161 a122 a1b a1 a204a[0] a204b[0] a204[1][0] a204[1][1]"/>
    </vehicle>

    <vehicle id="73" depart="2418.00" arrival="2550.00">
        <route edges="a20001+87[1][0] a87[1][1] am90 a171 a161 a122 a1b a1 a204a[0] a204b[0] a204[1][0] a204[1][1]"/>
    </vehicle>

    <vehicle id="76" depart="2449.00" arrival="2566.00">
        <route edges="a43[1] a201 a201c a204a[0] a204b[0] a204[1][0] a204[1][1]"/>
    </vehicle>

    <vehicle id="75" depart="2434.00" arrival="2627.00">
        <route edges="a203[0] a203[1] a203[1]b a202 a34 a134 a134b a133 a31 a201 a201c a204a[0] a204b[0]"/>
    </vehicle>

    <vehicle id="78" depart="2609.00" arrival="2720.00">
        <route edges="a43[1] a201 a201c a204a[0] a204b[0] a204[1][0] a204[1][1]"/>
    </vehicle>

    <vehicle id="72" depart="2411.00" arrival="2732.00">
        <route edges="a43[1] a201 a201c a204a[0] a124 b12 b56[0] b56[1][0] b56[1][1] b5[1][0]+66 b5[1][1][1] b8 b10"/>
    </vehicle>

    <vehicle id="74" depart="2428.00" arrival="2759.00">
        <route edges="b45 a67 a80 a127 a77[1][0] a77ab a77bc a77cd a53cd a53[0] a78[1][1] a189[0] a189[1][0]+20000 a189[1][1] a191 a69 a161 a122 a1b a1 a204a[0] a204b[0] a204[1][0] a204[1][1]"/>
    </vehicle>

    <vehicle id="80" depart="2718.00" arrival="2829.00">
        <route edges="a43[1] a201 a201c a204a[0] a204b[0] a204[1][0] a204[1][1]"/>
    </vehicle>

    <vehicle id="79" depart="2654.00" arrival="2893.00">
        <route edges="a195 a159 a42 a39 a35 a38 a15 a24 a22 a59 a53cd a53[0] a53[1][0] a79 a68 a11 b2[0] b2[1][0] b2[1][1][0] b2[1][1][1] b2[1][1][1]b"/>
    </vehicle>

    <vehicle id="77" depart="2598.00" arrival="2895.00">
        <route edges="a195 a159 a42 a39 a35 a38 a15 a24 a22 a59 a53cd a53[0] a53[1][0] a79 a68 a11 b2[0] b2[1][0] b2[1][1][0] b2[1][1][1] b2[1][1][1]b"/>
    </vehicle>

    <vehicle id="81" depart="2767.00" arrival="2949.00">
        <route edges="a203[0] a203[1] a203[1]b a202 a34 a134 a134b a133 a31 a201 a201c a204a[0] a204b[0]"/>
    </vehicle>

    <vehicle id="84" depart="2837.00" arrival="2977.00">
        <route edges="a20001+87[1][0] a87[1][1] am90 a171 a161 a122 a1b a1 a204a[0] a204b[0] a204[1][0] a204[1][1]"/>
    </vehicle>

    <vehicle id="83" depart="2831.00" arrival="3005.00">
        <route edges="a195 a61 a58[0] a58[1] a66 a119 a116 a46 a201 a201c a204a[0] a204b[0] a204[1][0] a204[1][1]"/>
    </vehicle>

    <vehicle id="82" depart="2782.00" arrival="3019.00">
        <route edges="a195 a159 a42 a39 a35 a38 a15 a24 a22 a59 a53cd a53[0] a53[1][0] a79 a68 a11 b2[0] b2[1][0] b2[1][1][0] b2[1][1][1] b2[1][1][1]b"/>
    </vehicle>

    <vehicle id="88" depart="2972.00" arrival="3132.00">
        <route edges="a20001+87[1][0] a87[1][1] am90 a171 a161 a122 a1b a1 a204a[0] a204b[0] a204[1][0] a204[1][1]"/>
    </vehicle>

    <vehicle id="85" depart="2948.00" arrival="3133.00">
        <route edges="a20001+87[1][0] a87[1][1] am90 a171 a161 a122 a1b a1 a204a[0] a204b[0] a204[1][0] a204[1][1]"/>
    </vehicle>

    <vehicle id="89" depart="2995.00" arrival="3176.00">
        <route edges="a20001+87[1][0] a87[1][1] am90 a171 a161 a122 a1b a1 a204a[0] a204b[0] a204[1][0] a204[1][1]"/>
    </vehicle>

    <vehicle id="86" depart="2948.00" arrival="3241.00">
        <route edges="a195 a61 a58[0] a58[1] a66 a119 a116 a46 a201 a201c a204a[0] a124 b12 b50[0] b50[1] b50[1]a b47"/>
    </vehicle>

    <vehicle id="87" depart="2959.00" arrival="3243.00">
        <route edges="a195 a159 a42 a39 a35 a38 a15 a24 a22 a59 a53cd a53[0] a53[1][0] a79 a68 a11 b2[0] b2[1][0] b2[1][1][0] b2[1][1][1] b2[1][1][1]b"/>
    </vehicle>

    <vehicle id="90" depart="3113.00" arrival="3286.00">
        <route edges="a20001+87[1][0] a87[1][1] am90 a171 a161 a122 a1b a1 a204a[0] a204b[0] a204[1][0] a204[1][1]"/>
    </vehicle>

    <vehicle id="91" depart="3145.00" arrival="3331.00">
        <route edges="a20001+87[1][0] a87[1][1] am90 a171 a161 a122 a1b a1 a204a[0] a204b[0] a204[1][0] a204[1][1]"/>
    </vehicle>

    <vehicle id="92" depart="3260.00" arrival="3469.00">
        <route edges="a203[0] a203[1] a203[1]b a202 a34 a134 a134b a133 a31 a201 a201c a204a[0] a204b[0]"/>
    </vehicle>

    <vehicle id="94" depart="3393.00" arrival="3496.00">
        <route edges="a43[1] a201 a201c a204a[0] a204b[0] a204[1][0] a204[1][1]"/>
    </vehicle>

    <vehicle id="95" depart="3447.00" arrival="3605.00">
        <route edges="a20001+87[1][0] a87[1][1] am90 a171 a161 a122 a1b a1 a204a[0] a204b[0] a204[1][0] a204[1][1]"/>
    </vehicle>

    <vehicle id="93" depart="3358.00" arrival="3622.00">
        <route edges="a43[1] a201 a201c a204a[0] a124 b12 b56[0] b56[1][0] b56[1][1] b5[1][0]+66 b5[1][1][1] b8 b10"/>
    </vehicle>

    <vehicle id="96" depart="3462.00" arrival="3674.00">
        <route edges="a195 a61 a58[0] a58[1] a66 a119 a116 a46 a201 a201c a204a[0] a204b[0] a204[1][0] a204[1][1]"/>
    </vehicle>

    <vehicle id="98" depart="3533.00" arrival="3744.00">
        <route edges="a195 a61 a58[0] a58[1] a66 a119 a116 a46 a201 a201c a204a[0] a124 b12 b50[0] b50[1] b50[1]a b47"/>
    </vehicle>

    <vehicle id="99" depart="3584.00" arrival="3755.00">
        <route edges="a195 a61 a58[0] a58[1] a66 a119 a116 a46 a201 a201c a204a[0] a204b[0] a204[1][0] a204[1][1]"/>
    </vehicle>

    <vehicle id="97" depart="3507.00" arrival="3817.00">
        <route edges="a55 a55b a125 b12 b50[0] b50[1] b50[1]a a181 a18 a17 a71 b2[0] b2[1][0] b2[1][1][0] b2[1][1][1] b2[1][1][1]b"/>
    </vehicle>

</routes>
