<?xml version="1.0" encoding="UTF-8"?>

<!-- generated on 2025-03-21 17:18:07 by Eclipse SUMO sumo Version 1.21.0
<sumoConfiguration xmlns:xsi="http://www.w3.org/2001/XMLSchema-instance" xsi:noNamespaceSchemaLocation="http://sumo.dlr.de/xsd/sumoConfiguration.xsd">

    <input>
        <net-file value="${STATICPATH}/joined_lanes.net.xml"/>
        <route-files value="${SIMULATIONPATH}/generatedRoutes.rou.xml"/>
        <additional-files value="${STATICPATH}/detectors.add.xml,${STATICPATH}/joined_vtypes.add.xml,${STATICPATH}/joined_tls.add.xml"/>
    </input>

    <output>
        <fcd-output value="${SIMULATIONPATH}/fcd.xml"/>
        <queue-output value="${SIMULATIONPATH}/queue.xml"/>
        <summary-output value="${SIMULATIONPATH}/summary.xml"/>
        <tripinfo-output value="${SIMULATIONPATH}/tripinfos.xml"/>
        <vehroute-output value="${SIMULATIONPATH}/vehroute.xml"/>
        <save-state.prefix value="configs\state"/>
    </output>

    <processing>
        <ignore-junction-blocker value="1"/>
        <ignore-route-errors value="true"/>
        <time-to-teleport value="-1"/>
    </processing>

    <report>
        <log value="C:/Users/fabio/Desktop/sumo_log.txt"/>
        <no-step-log value="true"/>
    </report>

    <emissions>
        <phemlight-path value="configs\./PHEMlight/"/>
    </emissions>

    <traci_server>
        <remote-port value="60021"/>
    </traci_server>

</sumoConfiguration>
-->

<fcd-export xmlns:xsi="http://www.w3.org/2001/XMLSchema-instance" xsi:noNamespaceSchemaLocation="http://sumo.dlr.de/xsd/fcd_file.xsd">
    <timestep time="0.00"/>
    <timestep time="1.00"/>
    <timestep time="2.00">
        <vehicle id="0" x="1333.43" y="5.88" angle="10.07" type="DEFAULT_VEHTYPE" speed="0.00" pos="5.10" lane="a195_0" slope="0.00"/>
    </timestep>
    <timestep time="3.00">
        <vehicle id="0" x="1333.84" y="8.19" angle="10.07" type="DEFAULT_VEHTYPE" speed="2.34" pos="7.44" lane="a195_0" slope="0.00"/>
    </timestep>
    <timestep time="4.00">
        <vehicle id="0" x="1334.50" y="11.91" angle="10.07" type="DEFAULT_VEHTYPE" speed="3.78" pos="11.22" lane="a195_0" slope="0.00"/>
    </timestep>
    <timestep time="5.00">
        <vehicle id="0" x="1335.95" y="17.97" angle="13.95" type="DEFAULT_VEHTYPE" speed="6.23" pos="17.45" lane="a195_0" slope="0.00"/>
    </timestep>
    <timestep time="6.00">
        <vehicle id="0" x="1337.90" y="25.82" angle="13.95" type="DEFAULT_VEHTYPE" speed="8.09" pos="25.55" lane="a195_0" slope="0.00"/>
    </timestep>
    <timestep time="7.00">
        <vehicle id="0" x="1340.41" y="35.91" angle="13.95" type="DEFAULT_VEHTYPE" speed="10.40" pos="35.94" lane="a195_0" slope="0.00"/>
    </timestep>
    <timestep time="8.00">
        <vehicle id="0" x="1343.92" y="47.90" angle="16.93" type="DEFAULT_VEHTYPE" speed="12.49" pos="48.44" lane="a195_0" slope="0.00"/>
    </timestep>
    <timestep time="9.00">
        <vehicle id="0" x="1347.74" y="60.91" angle="16.22" type="DEFAULT_VEHTYPE" speed="13.56" pos="62.00" lane="a195_0" slope="0.00"/>
    </timestep>
    <timestep time="10.00">
        <vehicle id="0" x="1351.62" y="74.25" angle="16.22" type="DEFAULT_VEHTYPE" speed="13.89" pos="75.89" lane="a195_0" slope="0.00"/>
    </timestep>
    <timestep time="11.00">
        <vehicle id="0" x="1355.43" y="87.30" angle="16.39" type="DEFAULT_VEHTYPE" speed="13.60" pos="89.49" lane="a195_0" slope="0.00"/>
    </timestep>
    <timestep time="12.00">
        <vehicle id="0" x="1359.82" y="100.18" angle="18.83" type="DEFAULT_VEHTYPE" speed="13.61" pos="103.09" lane="a195_0" slope="0.00"/>
    </timestep>
    <timestep time="13.00">
        <vehicle id="0" x="1364.06" y="112.61" angle="18.83" type="DEFAULT_VEHTYPE" speed="13.13" pos="116.22" lane="a195_0" slope="0.00"/>
    </timestep>
    <timestep time="14.00">
        <vehicle id="0" x="1367.46" y="122.56" angle="18.83" type="DEFAULT_VEHTYPE" speed="10.52" pos="126.74" lane="a195_0" slope="0.00"/>
    </timestep>
    <timestep time="15.00">
        <vehicle id="0" x="1368.31" y="130.97" angle="0.60" type="DEFAULT_VEHTYPE" speed="8.56" pos="8.36" lane=":a50_2_0" slope="0.00"/>
    </timestep>
    <timestep time="16.00">
        <vehicle id="0" x="1366.41" y="134.48" angle="335.78" type="DEFAULT_VEHTYPE" speed="4.06" pos="12.42" lane=":a50_2_0" slope="0.00"/>
    </timestep>
    <timestep time="17.00">
        <vehicle id="0" x="1361.05" y="137.09" angle="294.69" type="DEFAULT_VEHTYPE" speed="6.00" pos="1.99" lane="a159_0" slope="0.00"/>
    </timestep>
    <timestep time="18.00">
        <vehicle id="0" x="1353.01" y="139.74" angle="288.24" type="DEFAULT_VEHTYPE" speed="8.47" pos="10.45" lane="a159_0" slope="0.00"/>
    </timestep>
    <timestep time="19.00">
        <vehicle id="0" x="1343.52" y="142.87" angle="288.24" type="DEFAULT_VEHTYPE" speed="9.99" pos="20.44" lane="a159_0" slope="0.00"/>
    </timestep>
    <timestep time="20.00">
        <vehicle id="0" x="1332.09" y="146.64" angle="288.24" type="DEFAULT_VEHTYPE" speed="12.04" pos="32.49" lane="a159_0" slope="0.00"/>
    </timestep>
    <timestep time="21.00">
        <vehicle id="0" x="1318.79" y="151.02" angle="288.24" type="DEFAULT_VEHTYPE" speed="14.00" pos="46.49" lane="a159_0" slope="0.00"/>
    </timestep>
    <timestep time="22.00">
        <vehicle id="0" x="1305.34" y="155.45" angle="288.24" type="DEFAULT_VEHTYPE" speed="14.16" pos="60.65" lane="a159_0" slope="0.00"/>
    </timestep>
    <timestep time="23.00">
        <vehicle id="0" x="1292.21" y="159.77" angle="288.24" type="DEFAULT_VEHTYPE" speed="13.82" pos="74.47" lane="a159_0" slope="0.00"/>
    </timestep>
    <timestep time="24.00">
        <vehicle id="0" x="1278.55" y="164.27" angle="288.24" type="DEFAULT_VEHTYPE" speed="14.38" pos="88.85" lane="a159_0" slope="0.00"/>
    </timestep>
    <timestep time="25.00">
        <vehicle id="0" x="1265.70" y="168.51" angle="288.24" type="DEFAULT_VEHTYPE" speed="13.53" pos="102.39" lane="a159_0" slope="0.00"/>
    </timestep>
    <timestep time="26.00">
        <vehicle id="0" x="1252.04" y="173.01" angle="288.24" type="DEFAULT_VEHTYPE" speed="14.39" pos="116.77" lane="a159_0" slope="0.00"/>
    </timestep>
    <timestep time="27.00">
        <vehicle id="0" x="1239.01" y="177.30" angle="288.24" type="DEFAULT_VEHTYPE" speed="13.72" pos="130.49" lane="a159_0" slope="0.00"/>
    </timestep>
    <timestep time="28.00">
        <vehicle id="0" x="1225.12" y="181.88" angle="288.24" type="DEFAULT_VEHTYPE" speed="14.63" pos="145.12" lane="a159_0" slope="0.00"/>
    </timestep>
    <timestep time="29.00">
        <vehicle id="0" x="1211.62" y="186.33" angle="288.24" type="DEFAULT_VEHTYPE" speed="14.21" pos="159.33" lane="a159_0" slope="0.00"/>
    </timestep>
    <timestep time="30.00">
        <vehicle id="0" x="1197.69" y="190.91" angle="288.24" type="DEFAULT_VEHTYPE" speed="14.66" pos="173.99" lane="a159_0" slope="0.00"/>
    </timestep>
    <timestep time="31.00">
        <vehicle id="0" x="1184.63" y="195.22" angle="288.24" type="DEFAULT_VEHTYPE" speed="13.75" pos="187.74" lane="a159_0" slope="0.00"/>
    </timestep>
    <timestep time="32.00">
        <vehicle id="0" x="1171.02" y="199.70" angle="288.24" type="DEFAULT_VEHTYPE" speed="14.34" pos="202.08" lane="a159_0" slope="0.00"/>
    </timestep>
    <timestep time="33.00">
        <vehicle id="0" x="1157.71" y="204.09" angle="288.24" type="DEFAULT_VEHTYPE" speed="14.01" pos="216.09" lane="a159_0" slope="0.00"/>
    </timestep>
    <timestep time="34.00">
        <vehicle id="0" x="1144.59" y="208.39" angle="288.04" type="DEFAULT_VEHTYPE" speed="13.81" pos="2.27" lane=":a32_2_0" slope="0.00"/>
    </timestep>
    <timestep time="35.00">
        <vehicle id="0" x="1130.75" y="212.80" angle="287.37" type="DEFAULT_VEHTYPE" speed="14.51" pos="5.18" lane="a42_0" slope="0.00"/>
    </timestep>
    <timestep time="36.00">
        <vehicle id="0" x="1116.88" y="217.14" angle="287.37" type="DEFAULT_VEHTYPE" speed="14.54" pos="19.72" lane="a42_0" slope="0.00"/>
    </timestep>
    <timestep time="37.00">
        <vehicle id="0" x="1103.92" y="221.19" angle="287.37" type="DEFAULT_VEHTYPE" speed="13.58" pos="33.30" lane="a42_0" slope="0.00"/>
    </timestep>
    <timestep time="38.00">
        <vehicle id="0" x="1090.07" y="225.65" angle="287.99" type="DEFAULT_VEHTYPE" speed="14.55" pos="10.61" lane=":a31_1_0" slope="0.00"/>
    </timestep>
    <timestep time="39.00">
        <vehicle id="0" x="1077.30" y="229.96" angle="288.69" type="DEFAULT_VEHTYPE" speed="13.48" pos="12.69" lane="a39_0" slope="0.00"/>
    </timestep>
    <timestep time="40.00">
        <vehicle id="0" x="1063.61" y="234.59" angle="288.69" type="DEFAULT_VEHTYPE" speed="14.44" pos="27.14" lane="a39_0" slope="0.00"/>
    </timestep>
    <timestep time="41.00">
        <vehicle id="0" x="1049.79" y="239.25" angle="288.49" type="DEFAULT_VEHTYPE" speed="14.59" pos="0.76" lane=":a28_0_0" slope="0.00"/>
    </timestep>
    <timestep time="42.00">
        <vehicle id="0" x="1036.94" y="243.19" angle="286.58" type="DEFAULT_VEHTYPE" speed="13.44" pos="2.94" lane="a35_0" slope="0.00"/>
    </timestep>
    <timestep time="43.00">
        <vehicle id="0" x="1023.47" y="247.49" angle="288.29" type="DEFAULT_VEHTYPE" speed="14.14" pos="17.08" lane="a35_0" slope="0.00"/>
    </timestep>
    <timestep time="44.00">
        <vehicle id="0" x="1010.23" y="251.86" angle="288.29" type="DEFAULT_VEHTYPE" speed="13.95" pos="31.02" lane="a35_0" slope="0.00"/>
    </timestep>
    <timestep time="45.00">
        <vehicle id="0" x="997.26" y="256.15" angle="288.29" type="DEFAULT_VEHTYPE" speed="13.66" pos="44.68" lane="a35_0" slope="0.00"/>
    </timestep>
    <timestep time="46.00">
        <vehicle id="0" x="983.06" y="258.98" angle="276.97" type="DEFAULT_VEHTYPE" speed="14.55" pos="59.23" lane="a35_0" slope="0.00"/>
    </timestep>
    <timestep time="47.00">
        <vehicle id="0" x="969.55" y="260.08" angle="272.05" type="DEFAULT_VEHTYPE" speed="13.57" pos="72.79" lane="a35_0" slope="0.00"/>
    </timestep>
    <timestep time="48.00">
        <vehicle id="0" x="955.67" y="260.58" angle="272.05" type="DEFAULT_VEHTYPE" speed="13.89" pos="86.68" lane="a35_0" slope="0.00"/>
    </timestep>
    <timestep time="49.00">
        <vehicle id="0" x="942.13" y="261.06" angle="272.05" type="DEFAULT_VEHTYPE" speed="13.55" pos="100.23" lane="a35_0" slope="0.00"/>
    </timestep>
    <timestep time="50.00">
        <vehicle id="0" x="932.01" y="261.21" angle="269.76" type="DEFAULT_VEHTYPE" speed="10.13" pos="110.36" lane="a35_0" slope="0.00"/>
    </timestep>
    <timestep time="51.00">
        <vehicle id="0" x="925.82" y="261.18" angle="269.76" type="DEFAULT_VEHTYPE" speed="6.19" pos="116.55" lane="a35_0" slope="0.00"/>
    </timestep>
    <timestep time="52.00">
        <vehicle id="0" x="918.11" y="261.47" angle="273.46" type="DEFAULT_VEHTYPE" speed="7.72" pos="5.03" lane=":a30_0_0" slope="0.00"/>
    </timestep>
    <timestep time="53.00">
        <vehicle id="0" x="908.44" y="261.01" angle="263.68" type="DEFAULT_VEHTYPE" speed="9.71" pos="3.30" lane="a38_0" slope="0.00"/>
    </timestep>
    <timestep time="54.00">
        <vehicle id="0" x="897.45" y="259.58" angle="262.56" type="DEFAULT_VEHTYPE" speed="11.08" pos="14.38" lane="a38_0" slope="0.00"/>
    </timestep>
    <timestep time="55.00">
        <vehicle id="0" x="883.96" y="257.81" angle="262.56" type="DEFAULT_VEHTYPE" speed="13.60" pos="27.98" lane="a38_0" slope="0.00"/>
    </timestep>
    <timestep time="56.00">
        <vehicle id="0" x="869.61" y="255.94" angle="262.56" type="DEFAULT_VEHTYPE" speed="14.47" pos="42.45" lane="a38_0" slope="0.00"/>
    </timestep>
    <timestep time="57.00">
        <vehicle id="0" x="855.40" y="254.08" angle="262.56" type="DEFAULT_VEHTYPE" speed="14.34" pos="56.79" lane="a38_0" slope="0.00"/>
    </timestep>
    <timestep time="58.00">
        <vehicle id="0" x="842.02" y="252.33" angle="262.56" type="DEFAULT_VEHTYPE" speed="13.49" pos="70.28" lane="a38_0" slope="0.00"/>
    </timestep>
    <timestep time="59.00">
        <vehicle id="0" x="827.69" y="250.46" angle="262.56" type="DEFAULT_VEHTYPE" speed="14.46" pos="84.74" lane="a38_0" slope="0.00"/>
    </timestep>
    <timestep time="60.00">
        <vehicle id="0" x="813.98" y="248.67" angle="262.56" type="DEFAULT_VEHTYPE" speed="13.82" pos="98.56" lane="a38_0" slope="0.00"/>
    </timestep>
    <timestep time="61.00">
        <vehicle id="0" x="799.97" y="246.84" angle="262.56" type="DEFAULT_VEHTYPE" speed="14.12" pos="112.69" lane="a38_0" slope="0.00"/>
    </timestep>
    <timestep time="62.00">
        <vehicle id="0" x="786.22" y="245.04" angle="262.56" type="DEFAULT_VEHTYPE" speed="13.87" pos="126.56" lane="a38_0" slope="0.00"/>
    </timestep>
    <timestep time="63.00">
        <vehicle id="0" x="771.68" y="243.09" angle="262.35" type="DEFAULT_VEHTYPE" speed="14.67" pos="12.96" lane=":a13_1_0" slope="0.00"/>
    </timestep>
    <timestep time="64.00">
        <vehicle id="0" x="757.17" y="241.10" angle="262.17" type="DEFAULT_VEHTYPE" speed="14.65" pos="13.33" lane="a15_0" slope="0.00"/>
        <vehicle id="1" x="916.90" y="834.40" angle="202.46" type="DEFAULT_VEHTYPE" speed="0.00" pos="5.10" lane="a67_0" slope="0.00"/>
    </timestep>
    <timestep time="65.00">
        <vehicle id="0" x="743.45" y="239.22" angle="262.17" type="DEFAULT_VEHTYPE" speed="13.85" pos="27.18" lane="a15_0" slope="0.00"/>
        <vehicle id="1" x="916.13" y="832.52" angle="202.46" type="DEFAULT_VEHTYPE" speed="2.03" pos="7.13" lane="a67_0" slope="0.00"/>
    </timestep>
    <timestep time="66.00">
        <vehicle id="0" x="729.95" y="237.36" angle="262.17" type="DEFAULT_VEHTYPE" speed="13.63" pos="40.81" lane="a15_0" slope="0.00"/>
        <vehicle id="1" x="914.60" y="828.84" angle="202.46" type="DEFAULT_VEHTYPE" speed="3.98" pos="11.11" lane="a67_0" slope="0.00"/>
    </timestep>
    <timestep time="67.00">
        <vehicle id="0" x="715.37" y="235.36" angle="262.17" type="DEFAULT_VEHTYPE" speed="14.71" pos="55.52" lane="a15_0" slope="0.00"/>
        <vehicle id="1" x="915.06" y="821.57" angle="202.47" type="DEFAULT_VEHTYPE" speed="6.54" pos="17.66" lane="a67_1" slope="0.00"/>
    </timestep>
    <timestep time="68.00">
        <vehicle id="0" x="700.99" y="233.38" angle="262.17" type="DEFAULT_VEHTYPE" speed="14.52" pos="70.04" lane="a15_0" slope="0.00"/>
        <vehicle id="1" x="912.01" y="814.20" angle="202.47" type="DEFAULT_VEHTYPE" speed="7.98" pos="25.63" lane="a67_1" slope="0.00"/>
    </timestep>
    <timestep time="69.00">
        <vehicle id="0" x="690.10" y="231.89" angle="262.17" type="DEFAULT_VEHTYPE" speed="10.98" pos="81.03" lane="a15_0" slope="0.00"/>
        <vehicle id="1" x="907.97" y="804.43" angle="202.47" type="DEFAULT_VEHTYPE" speed="10.58" pos="36.21" lane="a67_1" slope="0.00"/>
    </timestep>
    <timestep time="70.00">
        <vehicle id="0" x="683.40" y="230.96" angle="262.17" type="DEFAULT_VEHTYPE" speed="6.77" pos="87.80" lane="a15_0" slope="0.00"/>
        <vehicle id="1" x="903.19" y="792.77" angle="201.96" type="DEFAULT_VEHTYPE" speed="12.61" pos="48.82" lane="a67_1" slope="0.00"/>
    </timestep>
    <timestep time="71.00">
        <vehicle id="0" x="681.15" y="230.66" angle="262.17" type="DEFAULT_VEHTYPE" speed="2.27" pos="90.07" lane="a15_0" slope="0.00"/>
        <vehicle id="1" x="898.40" y="780.83" angle="201.87" type="DEFAULT_VEHTYPE" speed="12.86" pos="61.67" lane="a67_1" slope="0.00"/>
    </timestep>
    <timestep time="72.00">
        <vehicle id="0" x="676.94" y="230.49" angle="266.86" type="DEFAULT_VEHTYPE" speed="4.23" pos="2.87" lane=":a12_3_0" slope="0.00"/>
        <vehicle id="1" x="893.76" y="769.26" angle="201.87" type="DEFAULT_VEHTYPE" speed="12.47" pos="74.14" lane="a67_1" slope="0.00"/>
    </timestep>
    <timestep time="73.00">
        <vehicle id="0" x="675.44" y="234.81" angle="343.92" type="DEFAULT_VEHTYPE" speed="5.35" pos="8.21" lane=":a12_3_0" slope="0.00"/>
        <vehicle id="1" x="888.97" y="757.33" angle="201.87" type="DEFAULT_VEHTYPE" speed="12.85" pos="87.00" lane="a67_1" slope="0.00"/>
    </timestep>
    <timestep time="74.00">
        <vehicle id="0" x="677.61" y="240.26" angle="22.84" type="DEFAULT_VEHTYPE" speed="5.87" pos="4.83" lane="a24_0" slope="0.00"/>
        <vehicle id="1" x="884.54" y="746.28" angle="201.87" type="DEFAULT_VEHTYPE" speed="11.91" pos="98.90" lane="a67_1" slope="0.00"/>
    </timestep>
    <timestep time="75.00">
        <vehicle id="0" x="680.48" y="246.99" angle="23.09" type="DEFAULT_VEHTYPE" speed="7.31" pos="12.14" lane="a24_0" slope="0.00"/>
        <vehicle id="1" x="880.15" y="735.34" angle="201.87" type="DEFAULT_VEHTYPE" speed="11.79" pos="110.69" lane="a67_1" slope="0.00"/>
    </timestep>
    <timestep time="76.00">
        <vehicle id="0" x="684.01" y="255.26" angle="23.09" type="DEFAULT_VEHTYPE" speed="8.99" pos="21.13" lane="a24_0" slope="0.00"/>
        <vehicle id="1" x="874.97" y="724.06" angle="204.78" type="DEFAULT_VEHTYPE" speed="12.41" pos="11.78" lane=":a23_1_0" slope="0.00"/>
    </timestep>
    <timestep time="77.00">
        <vehicle id="0" x="688.53" y="265.86" angle="23.09" type="DEFAULT_VEHTYPE" speed="11.53" pos="32.66" lane="a24_0" slope="0.00"/>
        <vehicle id="1" x="869.92" y="713.11" angle="204.78" type="DEFAULT_VEHTYPE" speed="12.06" pos="23.84" lane=":a23_1_0" slope="0.00"/>
    </timestep>
    <timestep time="78.00">
        <vehicle id="0" x="693.82" y="278.27" angle="23.09" type="DEFAULT_VEHTYPE" speed="13.49" pos="46.15" lane="a24_0" slope="0.00"/>
        <vehicle id="1" x="864.99" y="702.19" angle="203.59" type="DEFAULT_VEHTYPE" speed="11.98" pos="3.13" lane="a80_0" slope="0.00"/>
    </timestep>
    <timestep time="79.00">
        <vehicle id="0" x="699.29" y="291.11" angle="23.09" type="DEFAULT_VEHTYPE" speed="13.96" pos="60.11" lane="a24_0" slope="0.00"/>
        <vehicle id="1" x="860.34" y="691.15" angle="202.88" type="DEFAULT_VEHTYPE" speed="11.98" pos="15.11" lane="a80_0" slope="0.00"/>
    </timestep>
    <timestep time="80.00">
        <vehicle id="0" x="705.05" y="304.60" angle="23.09" type="DEFAULT_VEHTYPE" speed="14.67" pos="74.78" lane="a24_0" slope="0.00"/>
        <vehicle id="1" x="855.73" y="680.25" angle="202.88" type="DEFAULT_VEHTYPE" speed="11.84" pos="26.94" lane="a80_0" slope="0.00"/>
    </timestep>
    <timestep time="81.00">
        <vehicle id="0" x="710.44" y="317.25" angle="23.09" type="DEFAULT_VEHTYPE" speed="13.76" pos="88.53" lane="a24_0" slope="0.00"/>
        <vehicle id="1" x="850.88" y="668.75" angle="202.88" type="DEFAULT_VEHTYPE" speed="12.48" pos="39.42" lane="a80_0" slope="0.00"/>
    </timestep>
    <timestep time="82.00">
        <vehicle id="0" x="716.09" y="330.50" angle="23.09" type="DEFAULT_VEHTYPE" speed="14.40" pos="102.93" lane="a24_0" slope="0.00"/>
        <vehicle id="1" x="846.22" y="657.70" angle="202.88" type="DEFAULT_VEHTYPE" speed="12.00" pos="51.41" lane="a80_0" slope="0.00"/>
    </timestep>
    <timestep time="83.00">
        <vehicle id="0" x="721.59" y="343.39" angle="23.09" type="DEFAULT_VEHTYPE" speed="14.01" pos="116.95" lane="a24_0" slope="0.00"/>
        <vehicle id="1" x="841.49" y="646.50" angle="202.88" type="DEFAULT_VEHTYPE" speed="12.16" pos="63.57" lane="a80_0" slope="0.00"/>
        <vehicle id="2" x="1929.92" y="573.35" angle="101.38" type="DEFAULT_VEHTYPE" speed="0.00" pos="5.10" lane="a134_0" slope="0.00"/>
    </timestep>
    <timestep time="84.00">
        <vehicle id="0" x="726.98" y="356.04" angle="23.09" type="DEFAULT_VEHTYPE" speed="13.75" pos="130.70" lane="a24_0" slope="0.00"/>
        <vehicle id="1" x="836.77" y="635.27" angle="202.69" type="DEFAULT_VEHTYPE" speed="12.17" pos="75.75" lane="a80_0" slope="0.00"/>
        <vehicle id="2" x="1932.17" y="572.90" angle="101.38" type="DEFAULT_VEHTYPE" speed="2.30" pos="7.40" lane="a134_0" slope="0.00"/>
    </timestep>
    <timestep time="85.00">
        <vehicle id="0" x="732.02" y="369.84" angle="15.97" type="DEFAULT_VEHTYPE" speed="14.72" pos="7.53" lane=":a19_6_0" slope="0.00"/>
        <vehicle id="1" x="831.91" y="623.56" angle="202.53" type="DEFAULT_VEHTYPE" speed="12.69" pos="88.43" lane="a80_0" slope="0.00"/>
        <vehicle id="2" x="1936.51" y="572.01" angle="101.52" type="DEFAULT_VEHTYPE" speed="4.43" pos="0.53" lane=":a26_3_0" slope="0.00"/>
    </timestep>
    <timestep time="86.00">
        <vehicle id="0" x="736.93" y="382.69" angle="24.20" type="DEFAULT_VEHTYPE" speed="13.79" pos="6.72" lane="a22_0" slope="0.00"/>
        <vehicle id="1" x="827.17" y="612.14" angle="202.53" type="DEFAULT_VEHTYPE" speed="12.36" pos="100.79" lane="a80_0" slope="0.00"/>
        <vehicle id="2" x="1942.71" y="570.62" angle="102.70" type="DEFAULT_VEHTYPE" speed="6.35" pos="6.88" lane=":a26_3_0" slope="0.00"/>
    </timestep>
    <timestep time="87.00">
        <vehicle id="0" x="742.88" y="395.91" angle="24.20" type="DEFAULT_VEHTYPE" speed="14.50" pos="21.22" lane="a22_0" slope="0.00"/>
        <vehicle id="1" x="822.29" y="600.37" angle="202.53" type="DEFAULT_VEHTYPE" speed="12.74" pos="113.53" lane="a80_0" slope="0.00"/>
        <vehicle id="2" x="1950.59" y="568.84" angle="102.70" type="DEFAULT_VEHTYPE" speed="8.08" pos="14.95" lane=":a26_3_0" slope="0.00"/>
    </timestep>
    <timestep time="88.00">
        <vehicle id="0" x="748.62" y="408.70" angle="24.20" type="DEFAULT_VEHTYPE" speed="14.01" pos="35.23" lane="a22_0" slope="0.00"/>
        <vehicle id="1" x="817.23" y="588.53" angle="204.07" type="DEFAULT_VEHTYPE" speed="12.88" pos="1.26" lane=":a56_0_0" slope="0.00"/>
        <vehicle id="2" x="1960.37" y="566.42" angle="104.51" type="DEFAULT_VEHTYPE" speed="10.08" pos="6.88" lane="a134b_0" slope="0.00"/>
    </timestep>
    <timestep time="89.00">
        <vehicle id="0" x="754.45" y="421.65" angle="24.20" type="DEFAULT_VEHTYPE" speed="14.20" pos="49.43" lane="a22_0" slope="0.00"/>
        <vehicle id="1" x="814.83" y="577.75" angle="200.26" type="DEFAULT_VEHTYPE" speed="11.12" pos="4.21" lane="a127_1" slope="0.00"/>
        <vehicle id="2" x="1972.31" y="563.33" angle="104.51" type="DEFAULT_VEHTYPE" speed="12.33" pos="19.21" lane="a134b_0" slope="0.00"/>
    </timestep>
    <timestep time="90.00">
        <vehicle id="0" x="760.03" y="434.08" angle="24.20" type="DEFAULT_VEHTYPE" speed="13.63" pos="63.06" lane="a22_0" slope="0.00"/>
        <vehicle id="1" x="812.32" y="571.26" angle="201.15" type="DEFAULT_VEHTYPE" speed="6.97" pos="11.17" lane="a127_1" slope="0.00"/>
        <vehicle id="2" x="1985.18" y="560.00" angle="104.51" type="DEFAULT_VEHTYPE" speed="13.30" pos="32.51" lane="a134b_0" slope="0.00"/>
    </timestep>
    <timestep time="91.00">
        <vehicle id="0" x="765.66" y="446.59" angle="24.20" type="DEFAULT_VEHTYPE" speed="13.71" pos="76.77" lane="a22_0" slope="0.00"/>
        <vehicle id="1" x="809.22" y="563.90" angle="203.88" type="DEFAULT_VEHTYPE" speed="7.98" pos="3.47" lane=":a42_0_1" slope="0.00"/>
        <vehicle id="2" x="1998.14" y="556.64" angle="104.51" type="DEFAULT_VEHTYPE" speed="13.39" pos="45.89" lane="a134b_0" slope="0.00"/>
    </timestep>
    <timestep time="92.00">
        <vehicle id="0" x="773.04" y="458.19" angle="26.45" type="DEFAULT_VEHTYPE" speed="13.89" pos="5.63" lane="a59_0" slope="0.00"/>
        <vehicle id="1" x="802.47" y="558.61" angle="243.02" type="DEFAULT_VEHTYPE" speed="8.94" pos="0.66" lane="a77[1][0]_1" slope="0.00"/>
        <vehicle id="2" x="2011.71" y="553.13" angle="104.51" type="DEFAULT_VEHTYPE" speed="14.02" pos="59.91" lane="a134b_0" slope="0.00"/>
    </timestep>
    <timestep time="93.00">
        <vehicle id="0" x="779.13" y="470.43" angle="26.45" type="DEFAULT_VEHTYPE" speed="13.67" pos="19.30" lane="a59_0" slope="0.00"/>
        <vehicle id="1" x="792.99" y="555.02" angle="241.82" type="DEFAULT_VEHTYPE" speed="11.06" pos="11.72" lane="a77[1][0]_1" slope="0.00"/>
        <vehicle id="2" x="2024.29" y="549.88" angle="104.51" type="DEFAULT_VEHTYPE" speed="12.98" pos="72.90" lane="a134b_0" slope="0.00"/>
    </timestep>
    <timestep time="94.00">
        <vehicle id="0" x="785.26" y="482.76" angle="26.45" type="DEFAULT_VEHTYPE" speed="13.77" pos="33.07" lane="a59_0" slope="0.00"/>
        <vehicle id="1" x="786.36" y="546.40" angle="202.42" type="DEFAULT_VEHTYPE" speed="12.22" pos="23.95" lane="a77[1][0]_1" slope="0.00"/>
        <vehicle id="2" x="2036.71" y="546.66" angle="104.51" type="DEFAULT_VEHTYPE" speed="12.83" pos="85.73" lane="a134b_0" slope="0.00"/>
    </timestep>
    <timestep time="95.00">
        <vehicle id="0" x="791.50" y="495.29" angle="26.45" type="DEFAULT_VEHTYPE" speed="13.99" pos="47.06" lane="a59_0" slope="0.00"/>
        <vehicle id="1" x="783.35" y="536.76" angle="176.10" type="DEFAULT_VEHTYPE" speed="9.71" pos="4.09" lane=":a20a_1_0" slope="0.00"/>
        <vehicle id="2" x="2049.14" y="543.45" angle="104.51" type="DEFAULT_VEHTYPE" speed="12.84" pos="98.57" lane="a134b_0" slope="0.00"/>
    </timestep>
    <timestep time="96.00">
        <vehicle id="0" x="796.62" y="505.58" angle="26.45" type="DEFAULT_VEHTYPE" speed="11.50" pos="58.57" lane="a59_0" slope="0.00"/>
        <vehicle id="1" x="790.19" y="527.01" angle="137.62" type="DEFAULT_VEHTYPE" speed="11.02" pos="7.35" lane=":a20b_2_0" slope="0.00"/>
        <vehicle id="2" x="2062.26" y="540.05" angle="104.51" type="DEFAULT_VEHTYPE" speed="13.56" pos="112.13" lane="a134b_0" slope="0.00"/>
    </timestep>
    <timestep time="97.00">
        <vehicle id="0" x="800.22" y="512.82" angle="26.45" type="DEFAULT_VEHTYPE" speed="8.08" pos="66.65" lane="a59_0" slope="0.00"/>
        <vehicle id="1" x="799.39" y="522.15" angle="114.52" type="DEFAULT_VEHTYPE" speed="10.01" pos="7.38" lane=":a20c_1_0" slope="0.00"/>
        <vehicle id="2" x="2075.42" y="536.65" angle="104.51" type="DEFAULT_VEHTYPE" speed="13.59" pos="125.72" lane="a134b_0" slope="0.00"/>
    </timestep>
    <timestep time="98.00">
        <vehicle id="0" x="802.05" y="516.49" angle="26.45" type="DEFAULT_VEHTYPE" speed="4.11" pos="70.75" lane="a59_0" slope="0.00"/>
        <vehicle id="1" x="808.45" y="522.67" angle="73.97" type="DEFAULT_VEHTYPE" speed="8.32" pos="2.10" lane="a53cd_0" slope="0.00"/>
        <vehicle id="2" x="2088.07" y="533.37" angle="104.51" type="DEFAULT_VEHTYPE" speed="13.07" pos="138.79" lane="a134b_0" slope="0.00"/>
    </timestep>
    <timestep time="99.00">
        <vehicle id="0" x="803.32" y="519.19" angle="25.64" type="DEFAULT_VEHTYPE" speed="3.41" pos="2.73" lane=":a39a_0_0" slope="0.00"/>
        <vehicle id="1" x="817.51" y="527.07" angle="57.94" type="DEFAULT_VEHTYPE" speed="9.64" pos="9.48" lane=":a39_1_0" slope="0.00"/>
        <vehicle id="2" x="2097.90" y="530.83" angle="104.51" type="DEFAULT_VEHTYPE" speed="10.15" pos="148.94" lane="a134b_0" slope="0.00"/>
    </timestep>
    <timestep time="100.00">
        <vehicle id="0" x="806.63" y="522.00" angle="51.09" type="DEFAULT_VEHTYPE" speed="5.30" pos="0.17" lane="a53cd_0" slope="0.00"/>
        <vehicle id="1" x="824.19" y="537.76" angle="15.55" type="DEFAULT_VEHTYPE" speed="11.90" pos="4.76" lane=":a40_2_0" slope="0.00"/>
        <vehicle id="2" x="2105.61" y="528.84" angle="104.51" type="DEFAULT_VEHTYPE" speed="7.96" pos="156.90" lane="a134b_0" slope="0.00"/>
    </timestep>
    <timestep time="101.00">
        <vehicle id="0" x="813.67" y="524.50" angle="70.59" type="DEFAULT_VEHTYPE" speed="7.18" pos="5.09" lane=":a39_1_0" slope="0.00"/>
        <vehicle id="1" x="822.93" y="549.71" angle="343.55" type="DEFAULT_VEHTYPE" speed="11.33" pos="16.10" lane=":a40_2_0" slope="0.00"/>
        <vehicle id="2" x="2107.64" y="530.75" angle="66.52" type="DEFAULT_VEHTYPE" speed="3.46" pos="3.19" lane=":a133-begin_0_0" slope="0.00"/>
    </timestep>
    <timestep time="102.00">
        <vehicle id="0" x="821.81" y="530.66" angle="50.13" type="DEFAULT_VEHTYPE" speed="9.39" pos="4.38" lane="a53[0]_0" slope="0.00"/>
        <vehicle id="1" x="818.04" y="556.99" angle="323.35" type="DEFAULT_VEHTYPE" speed="8.45" pos="4.33" lane="a53[1][0]_0" slope="0.00"/>
        <vehicle id="2" x="2105.34" y="532.21" angle="334.03" type="DEFAULT_VEHTYPE" speed="2.85" pos="1.37" lane="a133_0" slope="0.00"/>
    </timestep>
    <timestep time="103.00">
        <vehicle id="0" x="824.53" y="542.06" angle="6.66" type="DEFAULT_VEHTYPE" speed="10.91" pos="8.78" lane=":a40_2_0" slope="0.00"/>
        <vehicle id="1" x="816.30" y="564.22" angle="357.41" type="DEFAULT_VEHTYPE" speed="7.75" pos="1.21" lane="a79_0" slope="0.00"/>
        <vehicle id="2" x="2100.47" y="533.47" angle="284.50" type="DEFAULT_VEHTYPE" speed="5.03" pos="6.40" lane="a133_0" slope="0.00"/>
    </timestep>
    <timestep time="104.00">
        <vehicle id="0" x="821.66" y="551.89" angle="335.94" type="DEFAULT_VEHTYPE" speed="9.65" pos="18.43" lane=":a40_2_0" slope="0.00"/>
        <vehicle id="1" x="817.19" y="573.37" angle="9.69" type="DEFAULT_VEHTYPE" speed="9.27" pos="10.48" lane="a79_0" slope="0.00"/>
        <vehicle id="2" x="2093.24" y="535.35" angle="284.50" type="DEFAULT_VEHTYPE" speed="7.47" pos="13.88" lane="a133_0" slope="0.00"/>
    </timestep>
    <timestep time="105.00">
        <vehicle id="0" x="816.37" y="559.74" angle="326.49" type="DEFAULT_VEHTYPE" speed="9.37" pos="2.34" lane=":a41_0_0" slope="0.00"/>
        <vehicle id="1" x="821.24" y="584.07" angle="21.96" type="DEFAULT_VEHTYPE" speed="11.45" pos="21.92" lane="a79_0" slope="0.00"/>
        <vehicle id="2" x="2083.89" y="537.76" angle="284.50" type="DEFAULT_VEHTYPE" speed="9.65" pos="23.53" lane="a133_0" slope="0.00"/>
    </timestep>
    <timestep time="106.00">
        <vehicle id="0" x="816.36" y="568.61" angle="0.83" type="DEFAULT_VEHTYPE" speed="8.90" pos="5.60" lane="a79_0" slope="0.00"/>
        <vehicle id="1" x="826.06" y="596.01" angle="21.96" type="DEFAULT_VEHTYPE" speed="12.88" pos="34.81" lane="a79_0" slope="0.00"/>