<?xml version="1.0" encoding="UTF-8"?>

<!-- generated on 2025-03-21 17:18:07 by Eclipse SUMO sumo Version 1.21.0
<sumoConfiguration xmlns:xsi="http://www.w3.org/2001/XMLSchema-instance" xsi:noNamespaceSchemaLocation="http://sumo.dlr.de/xsd/sumoConfiguration.xsd">

    <input>
        <net-file value="${STATICPATH}/joined_lanes.net.xml"/>
        <route-files value="${SIMULATIONPATH}/generatedRoutes.rou.xml"/>
        <additional-files value="${STATICPATH}/detectors.add.xml,${STATICPATH}/joined_vtypes.add.xml,${STATICPATH}/joined_tls.add.xml"/>
    </input>

    <output>
        <fcd-output value="${SIMULATIONPATH}/fcd.xml"/>
        <queue-output value="${SIMULATIONPATH}/queue.xml"/>
        <summary-output value="${SIMULATIONPATH}/summary.xml"/>
        <tripinfo-output value="${SIMULATIONPATH}/tripinfos.xml"/>
        <vehroute-output value="${SIMULATIONPATH}/vehroute.xml"/>
        <save-state.prefix value="configs\state"/>
    </output>

    <processing>
        <ignore-junction-blocker value="1"/>
        <ignore-route-errors value="true"/>
        <time-to-teleport value="-1"/>
    </processing>

    <report>
        <log value="C:/Users/fabio/Desktop/sumo_log.txt"/>
        <no-step-log value="true"/>
    </report>

    <emissions>
        <phemlight-path value="configs\./PHEMlight/"/>
    </emissions>

    <traci_server>
        <remote-port value="60021"/>
    </traci_server>

</sumoConfiguration>
-->

<tripinfos xmlns:xsi="http://www.w3.org/2001/XMLSchema-instance" xsi:noNamespaceSchemaLocation="http://sumo.dlr.de/xsd/tripinfo_file.xsd">
    <tripinfo id="0" depart="2.00" departLane="a195_0" departPos="5.10" departSpeed="0.00" departDelay="0.80" arrival="307.00" arrivalLane="b2[1][1][1]b_0" arrivalPos="325.74" arrivalSpeed="14.59" duration="305.00" routeLength="2441.66" waitingTime="102.00" waitingCount="2" stopTime="0.00" timeLoss="136.52" rerouteNo="0" devices="vehroute_0 tripinfo_0 fcd_0" vType="DEFAULT_VEHTYPE" speedFactor="1.06" vaporized=""/>
    <tripinfo id="1" depart="64.00" departLane="a67_0" departPos="5.10" departSpeed="0.00" departDelay="0.32" arrival="400.00" arrivalLane="b4[1][1][1]_0" arrivalPos="171.54" arrivalSpeed="12.30" duration="336.00" routeLength="2329.22" waitingTime="119.00" waitingCount="4" stopTime="0.00" timeLoss="155.27" rerouteNo="0" devices="vehroute_1 tripinfo_1 fcd_1" vType="DEFAULT_VEHTYPE" speedFactor="0.94" vaporized=""/>
    <tripinfo id="2" depart="83.00" departLane="a134_0" departPos="5.10" departSpeed="0.00" departDelay="0.58" arrival="405.00" arrivalLane="b10_0" arrivalPos="224.30" arrivalSpeed="13.49" duration="322.00" routeLength="2704.70" waitingTime="89.00" waitingCount="4" stopTime="0.00" timeLoss="127.51" rerouteNo="0" devices="vehroute_2 tripinfo_2 fcd_2" vType="DEFAULT_VEHTYPE" speedFactor="1.01" vaporized=""/>
    <tripinfo id="4" depart="269.00" departLane="a210_0" departPos="5.10" departSpeed="0.00" departDelay="0.33" arrival="439.00" arrivalLane="b53a_0" arrivalPos="257.19" arrivalSpeed="13.30" duration="170.00" routeLength="1821.26" waitingTime="21.00" waitingCount="2" stopTime="0.00" timeLoss="41.35" rerouteNo="0" devices="vehroute_4 tripinfo_4 fcd_4" vType="DEFAULT_VEHTYPE" speedFactor="1.03" vaporized=""/>
    <tripinfo id="3" depart="228.00" departLane="a134_0" departPos="5.10" departSpeed="0.00" departDelay="0.81" arrival="529.00" arrivalLane="b10_0" arrivalPos="224.30" arrivalSpeed="15.00" duration="301.00" routeLength="2704.70" waitingTime="82.00" waitingCount="4" stopTime="0.00" timeLoss="119.86" rerouteNo="0" devices="vehroute_3 tripinfo_3 fcd_3" vType="DEFAULT_VEHTYPE" speedFactor="1.08" vaporized=""/>
    <tripinfo id="8" depart="439.00" departLane="b2[0]_0" departPos="5.10" departSpeed="0.00" departDelay="0.66" arrival="584.00" arrivalLane="b4[1][1][1]_0" arrivalPos="171.54" arrivalSpeed="11.76" duration="145.00" routeLength="1671.76" waitingTime="0.00" waitingCount="0" stopTime="0.00" timeLoss="14.55" rerouteNo="0" devices="vehroute_8 tripinfo_8 fcd_8" vType="DEFAULT_VEHTYPE" speedFactor="0.94" vaporized=""/>
    <tripinfo id="9" depart="440.00" departLane="a210_0" departPos="5.10" departSpeed="0.00" departDelay="0.67" arrival="608.00" arrivalLane="b53a_0" arrivalPos="257.19" arrivalSpeed="11.67" duration="168.00" routeLength="1821.26" waitingTime="0.00" waitingCount="0" stopTime="0.00" timeLoss="13.76" rerouteNo="0" devices="vehroute_9 tripinfo_9 fcd_9" vType="DEFAULT_VEHTYPE" speedFactor="0.86" vaporized=""/>
    <tripinfo id="5" depart="288.00" departLane="a203[0]_0" departPos="5.10" departSpeed="0.00" departDelay="0.12" arrival="626.00" arrivalLane="b2[1][1][1]b_0" arrivalPos="325.74" arrivalSpeed="10.49" duration="338.00" routeLength="2513.32" waitingTime="90.00" waitingCount="2" stopTime="0.00" timeLoss="118.01" rerouteNo="0" devices="vehroute_5 tripinfo_5 fcd_5" vType="DEFAULT_VEHTYPE" speedFactor="0.83" vaporized=""/>
    <tripinfo id="7" depart="424.00" departLane="a190_0" departPos="5.10" departSpeed="0.00" departDelay="0.46" arrival="636.00" arrivalLane="a204[1][1]_0" arrivalPos="436.51" arrivalSpeed="11.96" duration="212.00" routeLength="2178.95" waitingTime="13.00" waitingCount="1" stopTime="0.00" timeLoss="33.26" rerouteNo="0" devices="vehroute_7 tripinfo_7 fcd_7" vType="DEFAULT_VEHTYPE" speedFactor="0.89" vaporized=""/>
    <tripinfo id="10" depart="502.00" departLane="a13_0" departPos="5.10" departSpeed="0.00" departDelay="0.89" arrival="657.00" arrivalLane="b2[1][1][1]b_0" arrivalPos="325.74" arrivalSpeed="15.05" duration="155.00" routeLength="1684.52" waitingTime="24.00" waitingCount="1" stopTime="0.00" timeLoss="42.48" rerouteNo="0" devices="vehroute_10 tripinfo_10 fcd_10" vType="DEFAULT_VEHTYPE" speedFactor="1.09" vaporized=""/>
    <tripinfo id="6" depart="335.00" departLane="a134_0" departPos="5.10" departSpeed="0.00" departDelay="0.46" arrival="681.00" arrivalLane="b10_0" arrivalPos="224.30" arrivalSpeed="13.34" duration="346.00" routeLength="2704.70" waitingTime="122.00" waitingCount="3" stopTime="0.00" timeLoss="157.92" rerouteNo="0" devices="vehroute_6 tripinfo_6 fcd_6" vType="DEFAULT_VEHTYPE" speedFactor="1.05" vaporized=""/>
    <tripinfo id="14" depart="583.00" departLane="a210_0" departPos="5.10" departSpeed="0.00" departDelay="0.65" arrival="728.00" arrivalLane="b53a_0" arrivalPos="257.19" arrivalSpeed="13.26" duration="145.00" routeLength="1821.26" waitingTime="0.00" waitingCount="0" stopTime="0.00" timeLoss="11.28" rerouteNo="0" devices="vehroute_14 tripinfo_14 fcd_14" vType="DEFAULT_VEHTYPE" speedFactor="0.99" vaporized=""/>
    <tripinfo id="17" depart="640.00" departLane="b2[0]_0" departPos="5.10" departSpeed="0.00" departDelay="0.04" arrival="828.00" arrivalLane="b4[1][1][1]_0" arrivalPos="171.54" arrivalSpeed="12.15" duration="188.00" routeLength="1671.76" waitingTime="31.00" waitingCount="3" stopTime="0.00" timeLoss="58.04" rerouteNo="0" devices="vehroute_17 tripinfo_17 fcd_17" vType="DEFAULT_VEHTYPE" speedFactor="0.94" vaporized=""/>
    <tripinfo id="11" depart="509.00" departLane="a134_0" departPos="5.10" departSpeed="0.00" departDelay="0.40" arrival="833.00" arrivalLane="b10_0" arrivalPos="224.30" arrivalSpeed="14.15" duration="324.00" routeLength="2704.70" waitingTime="100.00" waitingCount="3" stopTime="0.00" timeLoss="132.38" rerouteNo="0" devices="vehroute_11 tripinfo_11 fcd_11" vType="DEFAULT_VEHTYPE" speedFactor="1.03" vaporized=""/>
    <tripinfo id="16" depart="626.00" departLane="a67_0" departPos="5.10" departSpeed="0.00" departDelay="0.49" arrival="839.00" arrivalLane="b53_0" arrivalPos="63.75" arrivalSpeed="11.88" duration="213.00" routeLength="1590.42" waitingTime="52.00" waitingCount="2" stopTime="0.00" timeLoss="79.22" rerouteNo="0" devices="vehroute_16 tripinfo_16 fcd_16" vType="DEFAULT_VEHTYPE" speedFactor="0.88" vaporized=""/>
    <tripinfo id="13" depart="574.00" departLane="a67_0" departPos="5.10" departSpeed="0.00" departDelay="0.51" arrival="841.00" arrivalLane="b4[1][1][1]_0" arrivalPos="171.54" arrivalSpeed="14.94" duration="267.00" routeLength="2329.22" waitingTime="77.00" waitingCount="3" stopTime="0.00" timeLoss="116.08" rerouteNo="0" devices="vehroute_13 tripinfo_13 fcd_13" vType="DEFAULT_VEHTYPE" speedFactor="1.12" vaporized=""/>
    <tripinfo id="12" depart="554.00" departLane="a134_0" departPos="5.10" departSpeed="0.00" departDelay="0.35" arrival="848.00" arrivalLane="b10_0" arrivalPos="224.30" arrivalSpeed="13.70" duration="294.00" routeLength="2704.70" waitingTime="80.00" waitingCount="2" stopTime="0.00" timeLoss="106.40" rerouteNo="0" devices="vehroute_12 tripinfo_12 fcd_12" vType="DEFAULT_VEHTYPE" speedFactor="1.05" vaporized=""/>
    <tripinfo id="15" depart="615.00" departLane="a197_0" departPos="5.10" departSpeed="0.00" departDelay="0.61" arrival="892.00" arrivalLane="b2[1][1][1]b_0" arrivalPos="325.74" arrivalSpeed="12.02" duration="277.00" routeLength="3013.08" waitingTime="10.00" waitingCount="1" stopTime="0.00" timeLoss="39.79" rerouteNo="0" devices="vehroute_15 tripinfo_15 fcd_15" vType="DEFAULT_VEHTYPE" speedFactor="0.93" vaporized=""/>
    <tripinfo id="19" depart="763.00" departLane="a78[0]_0" departPos="5.10" departSpeed="0.00" departDelay="0.68" arrival="901.00" arrivalLane="b2[1][1][1]b_0" arrivalPos="325.74" arrivalSpeed="14.84" duration="138.00" routeLength="1757.08" waitingTime="10.00" waitingCount="1" stopTime="0.00" timeLoss="27.05" rerouteNo="0" devices="vehroute_19 tripinfo_19 fcd_19" vType="DEFAULT_VEHTYPE" speedFactor="1.16" vaporized=""/>
    <tripinfo id="20" depart="764.00" departLane="a190_0" departPos="5.10" departSpeed="0.00" departDelay="0.86" arrival="952.00" arrivalLane="a204[1][1]_0" arrivalPos="436.51" arrivalSpeed="12.99" duration="188.00" routeLength="2178.95" waitingTime="12.00" waitingCount="1" stopTime="0.00" timeLoss="31.75" rerouteNo="0" devices="vehroute_20 tripinfo_20 fcd_20" vType="DEFAULT_VEHTYPE" speedFactor="1.02" vaporized=""/>
    <tripinfo id="18" depart="691.00" departLane="a203[0]_0" departPos="5.10" departSpeed="0.00" departDelay="0.58" arrival="1017.00" arrivalLane="b2[1][1][1]b_0" arrivalPos="325.74" arrivalSpeed="12.92" duration="326.00" routeLength="2513.32" waitingTime="95.00" waitingCount="4" stopTime="0.00" timeLoss="130.82" rerouteNo="0" devices="vehroute_18 tripinfo_18 fcd_18" vType="DEFAULT_VEHTYPE" speedFactor="0.94" vaporized=""/>
    <tripinfo id="21" depart="795.00" departLane="a210_0" departPos="5.10" departSpeed="0.00" departDelay="0.11" arrival="1033.00" arrivalLane="b53a_0" arrivalPos="257.19" arrivalSpeed="13.24" duration="238.00" routeLength="1821.26" waitingTime="80.00" waitingCount="3" stopTime="0.00" timeLoss="106.34" rerouteNo="0" devices="vehroute_21 tripinfo_21 fcd_21" vType="DEFAULT_VEHTYPE" speedFactor="1.01" vaporized=""/>
    <tripinfo id="22" depart="806.00" departLane="a78[0]_0" departPos="5.10" departSpeed="0.00" departDelay="0.99" arrival="1034.00" arrivalLane="b2[1][1][1]b_0" arrivalPos="325.74" arrivalSpeed="13.16" duration="228.00" routeLength="1757.08" waitingTime="80.00" waitingCount="1" stopTime="0.00" timeLoss="96.12" rerouteNo="0" devices="vehroute_22 tripinfo_22 fcd_22" vType="DEFAULT_VEHTYPE" speedFactor="0.97" vaporized=""/>
    <tripinfo id="28" depart="878.00" departLane="a190_0" departPos="5.10" departSpeed="0.00" departDelay="0.84" arrival="1036.00" arrivalLane="a204[1][1]_0" arrivalPos="436.51" arrivalSpeed="14.67" duration="158.00" routeLength="2174.46" waitingTime="0.00" waitingCount="0" stopTime="0.00" timeLoss="17.89" rerouteNo="0" devices="vehroute_28 tripinfo_28 fcd_28" vType="DEFAULT_VEHTYPE" speedFactor="1.13" vaporized=""/>
    <tripinfo id="25" depart="838.00" departLane="a190_0" departPos="5.10" departSpeed="0.00" departDelay="0.82" arrival="1087.00" arrivalLane="a204[1][1]_0" arrivalPos="436.51" arrivalSpeed="11.04" duration="249.00" routeLength="2178.95" waitingTime="43.00" waitingCount="2" stopTime="0.00" timeLoss="66.81" rerouteNo="0" devices="vehroute_25 tripinfo_25 fcd_25" vType="DEFAULT_VEHTYPE" speedFactor="0.87" vaporized=""/>
    <tripinfo id="26" depart="838.00" departLane="a203[0]_0" departPos="5.10" departSpeed="0.00" departDelay="0.48" arrival="1143.00" arrivalLane="b2[1][1][1]b_0" arrivalPos="325.74" arrivalSpeed="11.44" duration="305.00" routeLength="2513.32" waitingTime="65.00" waitingCount="3" stopTime="0.00" timeLoss="105.00" rerouteNo="0" devices="vehroute_26 tripinfo_26 fcd_26" vType="DEFAULT_VEHTYPE" speedFactor="0.92" vaporized=""/>
    <tripinfo id="30" depart="956.00" departLane="a13_0" departPos="5.10" departSpeed="0.00" departDelay="0.61" arrival="1145.00" arrivalLane="b2[1][1][1]b_1" arrivalPos="325.74" arrivalSpeed="15.40" duration="189.00" routeLength="1684.52" waitingTime="64.00" waitingCount="2" stopTime="0.00" timeLoss="84.65" rerouteNo="0" devices="vehroute_30 tripinfo_30 fcd_30" vType="DEFAULT_VEHTYPE" speedFactor="1.18" vaporized=""/>
    <tripinfo id="24" depart="825.00" departLane="a203[0]_0" departPos="5.10" departSpeed="0.00" departDelay="0.98" arrival="1146.00" arrivalLane="b2[1][1][1]b_0" arrivalPos="325.74" arrivalSpeed="11.26" duration="321.00" routeLength="2513.32" waitingTime="67.00" waitingCount="3" stopTime="0.00" timeLoss="99.06" rerouteNo="0" devices="vehroute_24 tripinfo_24 fcd_24" vType="DEFAULT_VEHTYPE" speedFactor="0.83" vaporized=""/>
    <tripinfo id="29" depart="926.00" departLane="a195_0" departPos="5.10" departSpeed="0.00" departDelay="0.63" arrival="1161.00" arrivalLane="b2[1][1][1]b_0" arrivalPos="325.74" arrivalSpeed="11.91" duration="235.00" routeLength="2435.23" waitingTime="16.00" waitingCount="2" stopTime="0.00" timeLoss="43.60" rerouteNo="0" devices="vehroute_29 tripinfo_29 fcd_29" vType="DEFAULT_VEHTYPE" speedFactor="0.93" vaporized=""/>
    <tripinfo id="27" depart="861.00" departLane="a134_0" departPos="5.10" departSpeed="0.00" departDelay="0.40" arrival="1170.00" arrivalLane="b10_0" arrivalPos="224.30" arrivalSpeed="12.43" duration="309.00" routeLength="2701.74" waitingTime="64.00" waitingCount="4" stopTime="0.00" timeLoss="101.78" rerouteNo="0" devices="vehroute_27 tripinfo_27 fcd_27" vType="DEFAULT_VEHTYPE" speedFactor="0.95" vaporized=""/>
    <tripinfo id="23" depart="819.00" departLane="a134_0" departPos="5.10" departSpeed="0.00" departDelay="0.51" arrival="1173.00" arrivalLane="b10_0" arrivalPos="224.30" arrivalSpeed="11.21" duration="354.00" routeLength="2704.70" waitingTime="89.00" waitingCount="5" stopTime="0.00" timeLoss="133.57" rerouteNo="0" devices="vehroute_23 tripinfo_23 fcd_23" vType="DEFAULT_VEHTYPE" speedFactor="0.89" vaporized=""/>
    <tripinfo id="31" depart="1000.00" departLane="a134_0" departPos="5.10" departSpeed="0.00" departDelay="0.09" arrival="1192.00" arrivalLane="b10_0" arrivalPos="224.30" arrivalSpeed="15.48" duration="192.00" routeLength="2704.70" waitingTime="0.00" waitingCount="0" stopTime="0.00" timeLoss="21.54" rerouteNo="0" devices="vehroute_31 tripinfo_31 fcd_31" vType="DEFAULT_VEHTYPE" speedFactor="1.15" vaporized=""/>
    <tripinfo id="33" depart="1071.00" departLane="a195_0" departPos="5.10" departSpeed="0.00" departDelay="0.52" arrival="1282.00" arrivalLane="b2[1][1][1]b_0" arrivalPos="325.74" arrivalSpeed="15.68" duration="211.00" routeLength="2441.66" waitingTime="23.00" waitingCount="3" stopTime="0.00" timeLoss="58.62" rerouteNo="0" devices="vehroute_33 tripinfo_33 fcd_33" vType="DEFAULT_VEHTYPE" speedFactor="1.17" vaporized=""/>
    <tripinfo id="34" depart="1130.00" departLane="a78[0]_0" departPos="5.10" departSpeed="0.00" departDelay="0.58" arrival="1286.00" arrivalLane="b2[1][1][1]b_0" arrivalPos="325.74" arrivalSpeed="13.08" duration="156.00" routeLength="1750.65" waitingTime="8.00" waitingCount="2" stopTime="0.00" timeLoss="27.77" rerouteNo="0" devices="vehroute_34 tripinfo_34 fcd_34" vType="DEFAULT_VEHTYPE" speedFactor="0.99" vaporized=""/>
    <tripinfo id="32" depart="1007.00" departLane="a203[0]_0" departPos="5.10" departSpeed="0.00" departDelay="0.07" arrival="1350.00" arrivalLane="b2[1][1][1]b_0" arrivalPos="325.74" arrivalSpeed="13.35" duration="343.00" routeLength="2513.32" waitingTime="129.00" waitingCount="3" stopTime="0.00" timeLoss="160.50" rerouteNo="0" devices="vehroute_32 tripinfo_32 fcd_32" vType="DEFAULT_VEHTYPE" speedFactor="1.01" vaporized=""/>
    <tripinfo id="36" depart="1162.00" departLane="b2[0]_0" departPos="5.10" departSpeed="0.00" departDelay="0.90" arrival="1352.00" arrivalLane="b4[1][1][1]_0" arrivalPos="171.54" arrivalSpeed="13.27" duration="190.00" routeLength="1671.76" waitingTime="43.00" waitingCount="2" stopTime="0.00" timeLoss="63.93" rerouteNo="0" devices="vehroute_36 tripinfo_36 fcd_36" vType="DEFAULT_VEHTYPE" speedFactor="0.97" vaporized=""/>
    <tripinfo id="35" depart="1144.00" departLane="a203[0]_0" departPos="5.10" departSpeed="0.00" departDelay="0.89" arrival="1357.00" arrivalLane="b2[1][1][1]b_0" arrivalPos="325.74" arrivalSpeed="13.64" duration="213.00" routeLength="2513.32" waitingTime="7.00" waitingCount="2" stopTime="0.00" timeLoss="33.96" rerouteNo="0" devices="vehroute_35 tripinfo_35 fcd_35" vType="DEFAULT_VEHTYPE" speedFactor="1.02" vaporized=""/>
    <tripinfo id="38" depart="1247.00" departLane="a190_0" departPos="5.10" departSpeed="0.00" departDelay="0.24" arrival="1407.00" arrivalLane="a204[1][1]_0" arrivalPos="436.51" arrivalSpeed="14.43" duration="160.00" routeLength="2178.95" waitingTime="0.00" waitingCount="0" stopTime="0.00" timeLoss="15.97" rerouteNo="0" devices="vehroute_38 tripinfo_38 fcd_38" vType="DEFAULT_VEHTYPE" speedFactor="1.10" vaporized=""/>
    <tripinfo id="37" depart="1231.00" departLane="a203[0]_0" departPos="5.10" departSpeed="0.00" departDelay="0.97" arrival="1462.00" arrivalLane="b2[1][1][1]b_0" arrivalPos="325.74" arrivalSpeed="15.67" duration="231.00" routeLength="2513.32" waitingTime="39.00" waitingCount="3" stopTime="0.00" timeLoss="76.05" rerouteNo="0" devices="vehroute_37 tripinfo_37 fcd_37" vType="DEFAULT_VEHTYPE" speedFactor="1.18" vaporized=""/>
    <tripinfo id="40" depart="1314.00" departLane="a78[0]_0" departPos="5.10" departSpeed="0.00" departDelay="0.73" arrival="1523.00" arrivalLane="b2[1][1][1]b_0" arrivalPos="325.74" arrivalSpeed="13.16" duration="209.00" routeLength="1757.08" waitingTime="69.00" waitingCount="1" stopTime="0.00" timeLoss="84.50" rerouteNo="0" devices="vehroute_40 tripinfo_40 fcd_40" vType="DEFAULT_VEHTYPE" speedFactor="1.03" vaporized=""/>
    <tripinfo id="41" depart="1372.00" departLane="a78[0]_0" departPos="5.10" departSpeed="0.00" departDelay="0.73" arrival="1565.00" arrivalLane="b2[1][1][1]b_1" arrivalPos="325.74" arrivalSpeed="13.05" duration="193.00" routeLength="1757.08" waitingTime="36.00" waitingCount="2" stopTime="0.00" timeLoss="58.51" rerouteNo="0" devices="vehroute_41 tripinfo_41 fcd_41" vType="DEFAULT_VEHTYPE" speedFactor="0.96" vaporized=""/>
    <tripinfo id="39" depart="1276.00" departLane="a195_0" departPos="5.10" departSpeed="0.00" departDelay="0.75" arrival="1566.00" arrivalLane="b2[1][1][1]b_0" arrivalPos="325.74" arrivalSpeed="12.12" duration="290.00" routeLength="2435.23" waitingTime="61.00" waitingCount="3" stopTime="0.00" timeLoss="91.45" rerouteNo="0" devices="vehroute_39 tripinfo_39 fcd_39" vType="DEFAULT_VEHTYPE" speedFactor="0.90" vaporized=""/>
    <tripinfo id="43" depart="1408.00" departLane="a190_0" departPos="5.10" departSpeed="0.00" departDelay="0.25" arrival="1615.00" arrivalLane="a204[1][1]_0" arrivalPos="436.51" arrivalSpeed="13.46" duration="207.00" routeLength="2178.95" waitingTime="26.00" waitingCount="2" stopTime="0.00" timeLoss="53.74" rerouteNo="0" devices="vehroute_43 tripinfo_43 fcd_43" vType="DEFAULT_VEHTYPE" speedFactor="1.04" vaporized=""/>
    <tripinfo id="44" depart="1430.00" departLane="a13_0" departPos="5.10" departSpeed="0.00" departDelay="0.16" arrival="1645.00" arrivalLane="b2[1][1][1]b_0" arrivalPos="325.74" arrivalSpeed="13.37" duration="215.00" routeLength="1684.52" waitingTime="81.00" waitingCount="1" stopTime="0.00" timeLoss="97.22" rerouteNo="0" devices="vehroute_44 tripinfo_44 fcd_44" vType="DEFAULT_VEHTYPE" speedFactor="1.04" vaporized=""/>
    <tripinfo id="45" depart="1458.00" departLane="a67_0" departPos="5.10" departSpeed="0.00" departDelay="0.73" arrival="1687.00" arrivalLane="b4[1][1][1]_0" arrivalPos="171.54" arrivalSpeed="15.04" duration="229.00" routeLength="2329.22" waitingTime="39.00" waitingCount="3" stopTime="0.00" timeLoss="72.71" rerouteNo="0" devices="vehroute_45 tripinfo_45 fcd_45" vType="DEFAULT_VEHTYPE" speedFactor="1.09" vaporized=""/>
    <tripinfo id="42" depart="1392.00" departLane="a134_0" departPos="5.10" departSpeed="0.00" departDelay="0.74" arrival="1692.00" arrivalLane="b10_0" arrivalPos="224.30" arrivalSpeed="14.99" duration="300.00" routeLength="2704.70" waitingTime="79.00" waitingCount="4" stopTime="0.00" timeLoss="120.29" rerouteNo="0" devices="vehroute_42 tripinfo_42 fcd_42" vType="DEFAULT_VEHTYPE" speedFactor="1.09" vaporized=""/>
    <tripinfo id="46" depart="1550.00" departLane="a13_0" departPos="5.10" departSpeed="0.00" departDelay="0.79" arrival="1771.00" arrivalLane="b2[1][1][1]b_0" arrivalPos="325.74" arrivalSpeed="12.74" duration="221.00" routeLength="1684.52" waitingTime="75.00" waitingCount="2" stopTime="0.00" timeLoss="97.84" rerouteNo="0" devices="vehroute_46 tripinfo_46 fcd_46" vType="DEFAULT_VEHTYPE" speedFactor="1.00" vaporized=""/>
    <tripinfo id="47" depart="1722.00" departLane="a13_0" departPos="5.10" departSpeed="0.00" departDelay="0.36" arrival="1902.00" arrivalLane="b2[1][1][1]b_0" arrivalPos="325.74" arrivalSpeed="11.35" duration="180.00" routeLength="1684.52" waitingTime="27.00" waitingCount="1" stopTime="0.00" timeLoss="44.10" rerouteNo="0" devices="vehroute_47 tripinfo_47 fcd_47" vType="DEFAULT_VEHTYPE" speedFactor="0.90" vaporized=""/>
    <tripinfo id="48" depart="1726.00" departLane="a203[0]_0" departPos="5.10" departSpeed="0.00" departDelay="0.32" arrival="1996.00" arrivalLane="b2[1][1][1]b_0" arrivalPos="325.74" arrivalSpeed="11.41" duration="270.00" routeLength="2513.32" waitingTime="33.00" waitingCount="2" stopTime="0.00" timeLoss="61.49" rerouteNo="0" devices="vehroute_48 tripinfo_48 fcd_48" vType="DEFAULT_VEHTYPE" speedFactor="0.88" vaporized=""/>
    <tripinfo id="49" depart="1745.00" departLane="a203[0]_0" departPos="5.10" departSpeed="0.00" departDelay="0.43" arrival="1998.00" arrivalLane="b2[1][1][1]b_1" arrivalPos="325.74" arrivalSpeed="11.77" duration="253.00" routeLength="2513.32" waitingTime="13.00" waitingCount="1" stopTime="0.00" timeLoss="37.35" rerouteNo="0" devices="vehroute_49 tripinfo_49 fcd_49" vType="DEFAULT_VEHTYPE" speedFactor="0.85" vaporized=""/>
    <tripinfo id="51" depart="1822.00" departLane="a210_0" departPos="5.10" departSpeed="0.00" departDelay="0.01" arrival="2012.00" arrivalLane="b53a_0" arrivalPos="257.19" arrivalSpeed="15.82" duration="190.00" routeLength="1821.26" waitingTime="58.00" waitingCount="1" stopTime="0.00" timeLoss="76.91" rerouteNo="0" devices="vehroute_51 tripinfo_51 fcd_51" vType="DEFAULT_VEHTYPE" speedFactor="1.17" vaporized=""/>
    <tripinfo id="53" depart="1836.00" departLane="a13_0" departPos="5.10" departSpeed="0.00" departDelay="0.99" arrival="2014.00" arrivalLane="b2[1][1][1]b_1" arrivalPos="325.74" arrivalSpeed="15.21" duration="178.00" routeLength="1684.52" waitingTime="44.00" waitingCount="1" stopTime="0.00" timeLoss="65.49" rerouteNo="0" devices="vehroute_53 tripinfo_53 fcd_53" vType="DEFAULT_VEHTYPE" speedFactor="1.10" vaporized=""/>
    <tripinfo id="52" depart="1825.00" departLane="a13_0" departPos="5.10" departSpeed="0.00" departDelay="0.38" arrival="2015.00" arrivalLane="b2[1][1][1]b_0" arrivalPos="325.74" arrivalSpeed="13.18" duration="190.00" routeLength="1678.09" waitingTime="44.00" waitingCount="1" stopTime="0.00" timeLoss="68.79" rerouteNo="0" devices="vehroute_52 tripinfo_52 fcd_52" vType="DEFAULT_VEHTYPE" speedFactor="1.02" vaporized=""/>
    <tripinfo id="50" depart="1805.00" departLane="a13_0" departPos="5.10" departSpeed="0.00" departDelay="0.85" arrival="2029.00" arrivalLane="b2[1][1][1]b_0" arrivalPos="325.74" arrivalSpeed="11.72" duration="224.00" routeLength="1684.52" waitingTime="60.00" waitingCount="2" stopTime="0.00" timeLoss="80.96" rerouteNo="0" devices="vehroute_50 tripinfo_50 fcd_50" vType="DEFAULT_VEHTYPE" speedFactor="0.85" vaporized=""/>
    <tripinfo id="54" depart="1917.00" departLane="a13_0" departPos="5.10" departSpeed="0.00" departDelay="0.07" arrival="2144.00" arrivalLane="b2[1][1][1]b_0" arrivalPos="325.74" arrivalSpeed="12.83" duration="227.00" routeLength="1684.52" waitingTime="80.00" waitingCount="2" stopTime="0.00" timeLoss="104.47" rerouteNo="0" devices="vehroute_54 tripinfo_54 fcd_54" vType="DEFAULT_VEHTYPE" speedFactor="1.00" vaporized=""/>
    <tripinfo id="55" depart="1944.00" departLane="a203[0]_0" departPos="5.10" departSpeed="0.00" departDelay="0.96" arrival="2211.00" arrivalLane="b2[1][1][1]b_0" arrivalPos="325.74" arrivalSpeed="12.99" duration="267.00" routeLength="2513.32" waitingTime="53.00" waitingCount="3" stopTime="0.00" timeLoss="82.98" rerouteNo="0" devices="vehroute_55 tripinfo_55 fcd_55" vType="DEFAULT_VEHTYPE" speedFactor="1.00" vaporized=""/>
    <tripinfo id="57" depart="2040.00" departLane="a67_0" departPos="5.10" departSpeed="0.00" departDelay="0.33" arrival="2257.00" arrivalLane="b53_0" arrivalPos="63.75" arrivalSpeed="14.74" duration="217.00" routeLength="1590.42" waitingTime="89.00" waitingCount="2" stopTime="0.00" timeLoss="114.92" rerouteNo="0" devices="vehroute_57 tripinfo_57 fcd_57" vType="DEFAULT_VEHTYPE" speedFactor="1.14" vaporized=""/>
    <tripinfo id="58" depart="2063.00" departLane="a190_0" departPos="5.10" departSpeed="0.00" departDelay="0.05" arrival="2263.00" arrivalLane="a204[1][1]_0" arrivalPos="436.51" arrivalSpeed="14.09" duration="200.00" routeLength="2174.46" waitingTime="18.00" waitingCount="2" stopTime="0.00" timeLoss="45.18" rerouteNo="0" devices="vehroute_58 tripinfo_58 fcd_58" vType="DEFAULT_VEHTYPE" speedFactor="1.02" vaporized=""/>
    <tripinfo id="59" depart="2069.00" departLane="a190_0" departPos="5.10" departSpeed="0.00" departDelay="0.49" arrival="2266.00" arrivalLane="a204[1][1]_0" arrivalPos="436.51" arrivalSpeed="12.57" duration="197.00" routeLength="2178.95" waitingTime="10.00" waitingCount="1" stopTime="0.00" timeLoss="33.62" rerouteNo="0" devices="vehroute_59 tripinfo_59 fcd_59" vType="DEFAULT_VEHTYPE" speedFactor="0.97" vaporized=""/>
    <tripinfo id="56" depart="2032.00" departLane="a78[0]_0" departPos="5.10" departSpeed="0.00" departDelay="0.01" arrival="2282.00" arrivalLane="b2[1][1][1]b_0" arrivalPos="325.74" arrivalSpeed="12.40" duration="250.00" routeLength="1757.08" waitingTime="86.00" waitingCount="2" stopTime="0.00" timeLoss="106.80" rerouteNo="0" devices="vehroute_56 tripinfo_56 fcd_56" vType="DEFAULT_VEHTYPE" speedFactor="0.90" vaporized=""/>
    <tripinfo id="61" depart="2140.00" departLane="a190_0" departPos="5.10" departSpeed="0.00" departDelay="0.55" arrival="2297.00" arrivalLane="a204[1][1]_0" arrivalPos="436.51" arrivalSpeed="14.67" duration="157.00" routeLength="2178.95" waitingTime="0.00" waitingCount="0" stopTime="0.00" timeLoss="15.15" rerouteNo="0" devices="vehroute_61 tripinfo_61 fcd_61" vType="DEFAULT_VEHTYPE" speedFactor="1.12" vaporized=""/>
    <tripinfo id="60" depart="2071.00" departLane="a67_0" departPos="5.10" departSpeed="0.00" departDelay="0.41" arrival="2363.00" arrivalLane="b4[1][1][1]_0" arrivalPos="171.54" arrivalSpeed="14.00" duration="292.00" routeLength="2329.22" waitingTime="97.00" waitingCount="4" stopTime="0.00" timeLoss="134.20" rerouteNo="0" devices="vehroute_60 tripinfo_60 fcd_60" vType="DEFAULT_VEHTYPE" speedFactor="1.08" vaporized=""/>
    <tripinfo id="62" depart="2170.00" departLane="a67_0" departPos="5.10" departSpeed="0.00" departDelay="0.81" arrival="2373.00" arrivalLane="b53_0" arrivalPos="63.75" arrivalSpeed="12.89" duration="203.00" routeLength="1590.42" waitingTime="62.00" waitingCount="2" stopTime="0.00" timeLoss="87.88" rerouteNo="0" devices="vehroute_62 tripinfo_62 fcd_62" vType="DEFAULT_VEHTYPE" speedFactor="1.02" vaporized=""/>
    <tripinfo id="66" depart="2231.00" departLane="a190_0" departPos="5.10" departSpeed="0.00" departDelay="0.81" arrival="2439.00" arrivalLane="a204[1][1]_0" arrivalPos="436.51" arrivalSpeed="12.45" duration="208.00" routeLength="2178.95" waitingTime="13.00" waitingCount="1" stopTime="0.00" timeLoss="32.84" rerouteNo="0" devices="vehroute_66 tripinfo_66 fcd_66" vType="DEFAULT_VEHTYPE" speedFactor="0.91" vaporized=""/>
    <tripinfo id="64" depart="2191.00" departLane="a210_0" departPos="5.10" departSpeed="0.00" departDelay="0.45" arrival="2451.00" arrivalLane="b53a_0" arrivalPos="257.19" arrivalSpeed="12.22" duration="260.00" routeLength="1821.26" waitingTime="91.00" waitingCount="2" stopTime="0.00" timeLoss="118.61" rerouteNo="0" devices="vehroute_64 tripinfo_64 fcd_64" vType="DEFAULT_VEHTYPE" speedFactor="0.94" vaporized=""/>
    <tripinfo id="63" depart="2183.00" departLane="a67_0" departPos="5.10" departSpeed="0.00" departDelay="0.06" arrival="2507.00" arrivalLane="b4[1][1][1]_0" arrivalPos="171.54" arrivalSpeed="13.11" duration="324.00" routeLength="2329.22" waitingTime="107.00" waitingCount="5" stopTime="0.00" timeLoss="151.42" rerouteNo="0" devices="vehroute_63 tripinfo_63 fcd_63" vType="DEFAULT_VEHTYPE" speedFactor="0.99" vaporized=""/>
    <tripinfo id="68" depart="2280.00" departLane="a134_0" departPos="5.10" departSpeed="0.00" departDelay="0.52" arrival="2515.00" arrivalLane="b10_0" arrivalPos="224.30" arrivalSpeed="14.28" duration="235.00" routeLength="2704.70" waitingTime="26.00" waitingCount="1" stopTime="0.00" timeLoss="46.73" rerouteNo="0" devices="vehroute_68 tripinfo_68 fcd_68" vType="DEFAULT_VEHTYPE" speedFactor="1.04" vaporized=""/>