<?xml version="1.0" encoding="UTF-8"?>

<!-- generated on 2025-03-21 17:18:07 by Eclipse SUMO sumo Version 1.21.0
<sumoConfiguration xmlns:xsi="http://www.w3.org/2001/XMLSchema-instance" xsi:noNamespaceSchemaLocation="http://sumo.dlr.de/xsd/sumoConfiguration.xsd">

    <input>
        <net-file value="${STATICPATH}/joined_lanes.net.xml"/>
        <route-files value="${SIMULATIONPATH}/generatedRoutes.rou.xml"/>
        <additional-files value="${STATICPATH}/detectors.add.xml,${STATICPATH}/joined_vtypes.add.xml,${STATICPATH}/joined_tls.add.xml"/>
    </input>

    <output>
        <fcd-output value="${SIMULATIONPATH}/fcd.xml"/>
        <queue-output value="${SIMULATIONPATH}/queue.xml"/>
        <summary-output value="${SIMULATIONPATH}/summary.xml"/>
        <tripinfo-output value="${SIMULATIONPATH}/tripinfos.xml"/>
        <vehroute-output value="${SIMULATIONPATH}/vehroute.xml"/>
        <save-state.prefix value="configs\state"/>
    </output>

    <processing>
        <ignore-junction-blocker value="1"/>
        <ignore-route-errors value="true"/>
        <time-to-teleport value="-1"/>
    </processing>

    <report>
        <log value="C:/Users/fabio/Desktop/sumo_log.txt"/>
        <no-step-log value="true"/>
    </report>

    <emissions>
        <phemlight-path value="configs\./PHEMlight/"/>
    </emissions>

    <traci_server>
        <remote-port value="60021"/>
    </traci_server>

</sumoConfiguration>
-->

<routes xmlns:xsi="http://www.w3.org/2001/XMLSchema-instance" xsi:noNamespaceSchemaLocation="http://sumo.dlr.de/xsd/routes_file.xsd">
    <vehicle id="0" depart="2.00" arrival="307.00">
        <route edges="a195 a159 a42 a39 a35 a38 a15 a24 a22 a59 a53cd a53[0] a53[1][0] a79 a68 a11 b2[0] b2[1][0] b2[1][1][0] b2[1][1][1] b2[1][1][1]b"/>
    </vehicle>

    <vehicle id="1" depart="64.00" arrival="400.00">
        <route edges="a67 a80 a127 a77[1][0] a77ab a77bc a77cd a53cd a53[0] a53[1][0] a79 a68 a11 b38[0] b38[0]a b38[1][0] b38[1][1] b38[1][1]a b56[1][0] b56[1][1] b5[1][0]+66 b5[1][1][1] b8 b4[1][1][1]"/>
    </vehicle>

    <vehicle id="2" depart="83.00" arrival="405.00">
        <route edges="a134 a134b a133 a31 a201 a201c a204a[0] a124 b12 b56[0] b56[1][0] b56[1][1] b5[1][0]+66 b5[1][1][1] b8 b10"/>
    </vehicle>

    <vehicle id="4" depart="269.00" arrival="439.00">
        <route edges="a210 a43[0] a43[1] a201 a201c a204a[0] a124 b12 b53 b53a"/>
    </vehicle>

    <vehicle id="3" depart="228.00" arrival="529.00">
        <route edges="a134 a134b a133 a31 a201 a201c a204a[0] a124 b12 b56[0] b56[1][0] b56[1][1] b5[1][0]+66 b5[1][1][1] b8 b10"/>
    </vehicle>

    <vehicle id="8" depart="439.00" arrival="584.00">
        <route edges="b2[0] b2[1][0] b24 b23 b17[0] b17[1] b8 b4[1][1][1]"/>
    </vehicle>

    <vehicle id="9" depart="440.00" arrival="608.00">
        <route edges="a210 a43[0] a43[1] a201 a201c a204a[0] a124 b12 b53 b53a"/>
    </vehicle>

    <vehicle id="5" depart="288.00" arrival="626.00">
        <route edges="a203[0] b12 b50[0] b50[1] b50[1]a a181 a18 a17 a71 b2[0] b2[1][0] b2[1][1][0] b2[1][1][1] b2[1][1][1]b"/>
    </vehicle>

    <vehicle id="7" depart="424.00" arrival="636.00">
        <route edges="a190 a77[0] a53[1][0] a79 a74 a72[1] a69 a161 a122 a1b a1 a204a[0] a204b[0] a204[1][0] a204[1][1]"/>
    </vehicle>

    <vehicle id="10" depart="502.00" arrival="657.00">
        <route edges="a13 a104 a24 a22 a59 a53cd a53[0] a53[1][0] a79 a68 a11 b2[0] b2[1][0] b2[1][1][0] b2[1][1][1] b2[1][1][1]b"/>
    </vehicle>

    <vehicle id="6" depart="335.00" arrival="681.00">
        <route edges="a134 a134b a133 a31 a201 a201c a204a[0] a124 b12 b56[0] b56[1][0] b56[1][1] b5[1][0]+66 b5[1][1][1] b8 b10"/>
    </vehicle>

    <vehicle id="14" depart="583.00" arrival="728.00">
        <route edges="a210 a43[0] a43[1] a201 a201c a204a[0] a124 b12 b53 b53a"/>
    </vehicle>

    <vehicle id="17" depart="640.00" arrival="828.00">
        <route edges="b2[0] b2[1][0] b24 b23 b17[0] b17[1] b8 b4[1][1][1]"/>
    </vehicle>

    <vehicle id="11" depart="509.00" arrival="833.00">
        <route edges="a134 a134b a133 a31 a201 a201c a204a[0] a124 b12 b56[0] b56[1][0] b56[1][1] b5[1][0]+66 b5[1][1][1] b8 b10"/>
    </vehicle>

    <vehicle id="16" depart="626.00" arrival="839.00">
        <route edges="a67 a80 a127 a77[1][0] a77ab a77bc a77cd a53cd a53[0] a53[1][0] a79 a68 a11 b38[0] b38[0]a b38[1][0] b96 b49[1] b55 b53"/>
    </vehicle>

    <vehicle id="13" depart="574.00" arrival="841.00">
        <route edges="a67 a80 a127 a77[1][0] a77ab a77bc a77cd a53cd a53[0] a53[1][0] a79 a68 a11 b38[0] b38[0]a b38[1][0] b38[1][1] b38[1][1]a b56[1][0] b56[1][1] b5[1][0]+66 b5[1][1][1] b8 b4[1][1][1]"/>
    </vehicle>

    <vehicle id="12" depart="554.00" arrival="848.00">
        <route edges="a134 a134b a133 a31 a201 a201c a204a[0] a124 b12 b56[0] b56[1][0] b56[1][1] b5[1][0]+66 b5[1][1][1] b8 b10"/>
    </vehicle>

    <vehicle id="15" depart="615.00" arrival="892.00">
        <route edges="a197 a109[0] a109[1][0]+20003 a109[1][1] a116 a46 a134 a134b a133 a31 a115 a110 a185 a92 a90 am91 a88 a187 a191 a17 a71 b2[0] b2[1][0] b2[1][1][0] b2[1][1][1] b2[1][1][1]b"/>
    </vehicle>

    <vehicle id="19" depart="763.00" arrival="901.00">
        <route edges="a78[0] a56a a56b a77bc a77cd a53cd a53[0] a53[1][0] a79 a68 a11 b2[0] b2[1][0] b2[1][1][0] b2[1][1][1] b2[1][1][1]b"/>
    </vehicle>

    <vehicle id="20" depart="764.00" arrival="952.00">
        <route edges="a190 a77[0] a53[1][0] a79 a74 a72[1] a69 a161 a122 a1b a1 a204a[0] a204b[0] a204[1][0] a204[1][1]"/>
    </vehicle>

    <vehicle id="18" depart="691.00" arrival="1017.00">
        <route edges="a203[0] b12 b50[0] b50[1] b50[1]a a181 a18 a17 a71 b2[0] b2[1][0] b2[1][1][0] b2[1][1][1] b2[1][1][1]b"/>
    </vehicle>

    <vehicle id="21" depart="795.00" arrival="1033.00">
        <route edges="a210 a43[0] a43[1] a201 a201c a204a[0] a124 b12 b53 b53a"/>
    </vehicle>

    <vehicle id="22" depart="806.00" arrival="1034.00">
        <route edges="a78[0] a56a a56b a77bc a77cd a53cd a53[0] a53[1][0] a79 a68 a11 b2[0] b2[1][0] b2[1][1][0] b2[1][1][1] b2[1][1][1]b"/>
    </vehicle>

    <vehicle id="28" depart="878.00" arrival="1036.00">
        <route edges="a190 a77[0] a53[1][0] a79 a74 a72[1] a69 a161 a122 a1b a1 a204a[0] a204b[0] a204[1][0] a204[1][1]"/>
    </vehicle>

    <vehicle id="25" depart="838.00" arrival="1087.00">
        <route edges="a190 a77[0] a53[1][0] a79 a74 a72[1] a69 a161 a122 a1b a1 a204a[0] a204b[0] a204[1][0] a204[1][1]"/>
    </vehicle>

    <vehicle id="26" depart="838.00" arrival="1143.00">
        <route edges="a203[0] b12 b50[0] b50[1] b50[1]a a181 a18 a17 a71 b2[0] b2[1][0] b2[1][1][0] b2[1][1][1] b2[1][1][1]b"/>
    </vehicle>

    <vehicle id="30" depart="956.00" arrival="1145.00">
        <route edges="a13 a104 a24 a22 a59 a53cd a53[0] a53[1][0] a79 a68 a11 b2[0] b2[1][0] b2[1][1][0] b2[1][1][1] b2[1][1][1]b"/>
    </vehicle>

    <vehicle id="24" depart="825.00" arrival="1146.00">
        <route edges="a203[0] b12 b50[0] b50[1] b50[1]a a181 a18 a17 a71 b2[0] b2[1][0] b2[1][1][0] b2[1][1][1] b2[1][1][1]b"/>
    </vehicle>

    <vehicle id="29" depart="926.00" arrival="1161.00">
        <route edges="a195 a159 a42 a39 a35 a38 a15 a24 a22 a59 a53cd a53[0] a53[1][0] a79 a68 a11 b2[0] b2[1][0] b2[1][1][0] b2[1][1][1] b2[1][1][1]b"/>
    </vehicle>

    <vehicle id="27" depart="861.00" arrival="1170.00">
        <route edges="a134 a134b a133 a31 a201 a201c a204a[0] a124 b12 b56[0] b56[1][0] b56[1][1] b5[1][0]+66 b5[1][1][1] b8 b10"/>
    </vehicle>

    <vehicle id="23" depart="819.00" arrival="1173.00">
        <route edges="a134 a134b a133 a31 a201 a201c a204a[0] a124 b12 b56[0] b56[1][0] b56[1][1] b5[1][0]+66 b5[1][1][1] b8 b10"/>
    </vehicle>

    <vehicle id="31" depart="1000.00" arrival="1192.00">
        <route edges="a134 a134b a133 a31 a201 a201c a204a[0] a124 b12 b56[0] b56[1][0] b56[1][1] b5[1][0]+66 b5[1][1][1] b8 b10"/>
    </vehicle>

    <vehicle id="33" depart="1071.00" arrival="1282.00">
        <route edges="a195 a159 a42 a39 a35 a38 a15 a24 a22 a59 a53cd a53[0] a53[1][0] a79 a68 a11 b2[0] b2[1][0] b2[1][1][0] b2[1][1][1] b2[1][1][1]b"/>
    </vehicle>

    <vehicle id="34" depart="1130.00" arrival="1286.00">
        <route edges="a78[0] a56a a56b a77bc a77cd a53cd a53[0] a53[1][0] a79 a68 a11 b2[0] b2[1][0] b2[1][1][0] b2[1][1][1] b2[1][1][1]b"/>
    </vehicle>

    <vehicle id="32" depart="1007.00" arrival="1350.00">
        <route edges="a203[0] b12 b50[0] b50[1] b50[1]a a181 a18 a17 a71 b2[0] b2[1][0] b2[1][1][0] b2[1][1][1] b2[1][1][1]b"/>
    </vehicle>

    <vehicle id="36" depart="1162.00" arrival="1352.00">
        <route edges="b2[0] b2[1][0] b24 b23 b17[0] b17[1] b8 b4[1][1][1]"/>
    </vehicle>

    <vehicle id="35" depart="1144.00" arrival="1357.00">
        <route edges="a203[0] b12 b50[0] b50[1] b50[1]a a181 a18 a17 a71 b2[0] b2[1][0] b2[1][1][0] b2[1][1][1] b2[1][1][1]b"/>
    </vehicle>

    <vehicle id="38" depart="1247.00" arrival="1407.00">
        <route edges="a190 a77[0] a53[1][0] a79 a74 a72[1] a69 a161 a122 a1b a1 a204a[0] a204b[0] a204[1][0] a204[1][1]"/>
    </vehicle>

    <vehicle id="37" depart="1231.00" arrival="1462.00">
        <route edges="a203[0] b12 b50[0] b50[1] b50[1]a a181 a18 a17 a71 b2[0] b2[1][0] b2[1][1][0] b2[1][1][1] b2[1][1][1]b"/>
    </vehicle>

    <vehicle id="40" depart="1314.00" arrival="1523.00">
        <route edges="a78[0] a56a a56b a77bc a77cd a53cd a53[0] a53[1][0] a79 a68 a11 b2[0] b2[1][0] b2[1][1][0] b2[1][1][1] b2[1][1][1]b"/>
    </vehicle>

    <vehicle id="41" depart="1372.00" arrival="1565.00">
        <route edges="a78[0] a56a a56b a77bc a77cd a53cd a53[0] a53[1][0] a79 a68 a11 b2[0] b2[1][0] b2[1][1][0] b2[1][1][1] b2[1][1][1]b"/>
    </vehicle>

    <vehicle id="39" depart="1276.00" arrival="1566.00">
        <route edges="a195 a159 a42 a39 a35 a38 a15 a24 a22 a59 a53cd a53[0] a53[1][0] a79 a68 a11 b2[0] b2[1][0] b2[1][1][0] b2[1][1][1] b2[1][1][1]b"/>
    </vehicle>

    <vehicle id="43" depart="1408.00" arrival="1615.00">
        <route edges="a190 a77[0] a53[1][0] a79 a74 a72[1] a69 a161 a122 a1b a1 a204a[0] a204b[0] a204[1][0] a204[1][1]"/>
    </vehicle>

    <vehicle id="44" depart="1430.00" arrival="1645.00">
        <route edges="a13 a104 a24 a22 a59 a53cd a53[0] a53[1][0] a79 a68 a11 b2[0] b2[1][0] b2[1][1][0] b2[1][1][1] b2[1][1][1]b"/>
    </vehicle>

    <vehicle id="45" depart="1458.00" arrival="1687.00">
        <route edges="a67 a80 a127 a77[1][0] a77ab a77bc a77cd a53cd a53[0] a53[1][0] a79 a68 a11 b38[0] b38[0]a b38[1][0] b38[1][1] b38[1][1]a b56[1][0] b56[1][1] b5[1][0]+66 b5[1][1][1] b8 b4[1][1][1]"/>
    </vehicle>

    <vehicle id="42" depart="1392.00" arrival="1692.00">
        <route edges="a134 a134b a133 a31 a201 a201c a204a[0] a124 b12 b56[0] b56[1][0] b56[1][1] b5[1][0]+66 b5[1][1][1] b8 b10"/>
    </vehicle>

    <vehicle id="46" depart="1550.00" arrival="1771.00">
        <route edges="a13 a104 a24 a22 a59 a53cd a53[0] a53[1][0] a79 a68 a11 b2[0] b2[1][0] b2[1][1][0] b2[1][1][1] b2[1][1][1]b"/>
    </vehicle>

    <vehicle id="47" depart="1722.00" arrival="1902.00">
        <route edges="a13 a104 a24 a22 a59 a53cd a53[0] a53[1][0] a79 a68 a11 b2[0] b2[1][0] b2[1][1][0] b2[1][1][1] b2[1][1][1]b"/>
    </vehicle>

    <vehicle id="48" depart="1726.00" arrival="1996.00">
        <route edges="a203[0] b12 b50[0] b50[1] b50[1]a a181 a18 a17 a71 b2[0] b2[1][0] b2[1][1][0] b2[1][1][1] b2[1][1][1]b"/>
    </vehicle>

    <vehicle id="49" depart="1745.00" arrival="1998.00">
        <route edges="a203[0] b12 b50[0] b50[1] b50[1]a a181 a18 a17 a71 b2[0] b2[1][0] b2[1][1][0] b2[1][1][1] b2[1][1][1]b"/>
    </vehicle>

    <vehicle id="51" depart="1822.00" arrival="2012.00">
        <route edges="a210 a43[0] a43[1] a201 a201c a204a[0] a124 b12 b53 b53a"/>
    </vehicle>

    <vehicle id="53" depart="1836.00" arrival="2014.00">
        <route edges="a13 a104 a24 a22 a59 a53cd a53[0] a53[1][0] a79 a68 a11 b2[0] b2[1][0] b2[1][1][0] b2[1][1][1] b2[1][1][1]b"/>
    </vehicle>

    <vehicle id="52" depart="1825.00" arrival="2015.00">
        <route edges="a13 a104 a24 a22 a59 a53cd a53[0] a53[1][0] a79 a68 a11 b2[0] b2[1][0] b2[1][1][0] b2[1][1][1] b2[1][1][1]b"/>
    </vehicle>

    <vehicle id="50" depart="1805.00" arrival="2029.00">
        <route edges="a13 a104 a24 a22 a59 a53cd a53[0] a53[1][0] a79 a68 a11 b2[0] b2[1][0] b2[1][1][0] b2[1][1][1] b2[1][1][1]b"/>
    </vehicle>

    <vehicle id="54" depart="1917.00" arrival="2144.00">
        <route edges="a13 a104 a24 a22 a59 a53cd a53[0] a53[1][0] a79 a68 a11 b2[0] b2[1][0] b2[1][1][0] b2[1][1][1] b2[1][1][1]b"/>
    </vehicle>

    <vehicle id="55" depart="1944.00" arrival="2211.00">
        <route edges="a203[0] b12 b50[0] b50[1] b50[1]a a181 a18 a17 a71 b2[0] b2[1][0] b2[1][1][0] b2[1][1][1] b2[1][1][1]b"/>
    </vehicle>

    <vehicle id="57" depart="2040.00" arrival="2257.00">
        <route edges="a67 a80 a127 a77[1][0] a77ab a77bc a77cd a53cd a53[0] a53[1][0] a79 a68 a11 b38[0] b38[0]a b38[1][0] b96 b49[1] b55 b53"/>
    </vehicle>

    <vehicle id="58" depart="2063.00" arrival="2263.00">
        <route edges="a190 a77[0] a53[1][0] a79 a74 a72[1] a69 a161 a122 a1b a1 a204a[0] a204b[0] a204[1][0] a204[1][1]"/>
    </vehicle>

    <vehicle id="59" depart="2069.00" arrival="2266.00">
        <route edges="a190 a77[0] a53[1][0] a79 a74 a72[1] a69 a161 a122 a1b a1 a204a[0] a204b[0] a204[1][0] a204[1][1]"/>
    </vehicle>

    <vehicle id="56" depart="2032.00" arrival="2282.00">
        <route edges="a78[0] a56a a56b a77bc a77cd a53cd a53[0] a53[1][0] a79 a68 a11 b2[0] b2[1][0] b2[1][1][0] b2[1][1][1] b2[1][1][1]b"/>
    </vehicle>

    <vehicle id="61" depart="2140.00" arrival="2297.00">
        <route edges="a190 a77[0] a53[1][0] a79 a74 a72[1] a69 a161 a122 a1b a1 a204a[0] a204b[0] a204[1][0] a204[1][1]"/>
    </vehicle>

    <vehicle id="60" depart="2071.00" arrival="2363.00">
        <route edges="a67 a80 a127 a77[1][0] a77ab a77bc a77cd a53cd a53[0] a53[1][0] a79 a68 a11 b38[0] b38[0]a b38[1][0] b38[1][1] b38[1][1]a b56[1][0] b56[1][1] b5[1][0]+66 b5[1][1][1] b8 b4[1][1][1]"/>
    </vehicle>

    <vehicle id="62" depart="2170.00" arrival="2373.00">
        <route edges="a67 a80 a127 a77[1][0] a77ab a77bc a77cd a53cd a53[0] a53[1][0] a79 a68 a11 b38[0] b38[0]a b38[1][0] b96 b49[1] b55 b53"/>
    </vehicle>

    <vehicle id="66" depart="2231.00" arrival="2439.00">
        <route edges="a190 a77[0] a53[1][0] a79 a74 a72[1] a69 a161 a122 a1b a1 a204a[0] a204b[0] a204[1][0] a204[1][1]"/>
    </vehicle>

    <vehicle id="64" depart="2191.00" arrival="2451.00">
        <route edges="a210 a43[0] a43[1] a201 a201c a204a[0] a124 b12 b53 b53a"/>
    </vehicle>

    <vehicle id="63" depart="2183.00" arrival="2507.00">
        <route edges="a67 a80 a127 a77[1][0] a77ab a77bc a77cd a53cd a53[0] a53[1][0] a79 a68 a11 b38[0] b38[0]a b38[1][0] b38[1][1] b38[1][1]a b56[1][0] b56[1][1] b5[1][0]+66 b5[1][1][1] b8 b4[1][1][1]"/>
    </vehicle>

    <vehicle id="68" depart="2280.00" arrival="2515.00">
        <route edges="a134 a134b a133 a31 a201 a201c a204a[0] a124 b12 b56[0] b56[1][0] b56[1][1] b5[1][0]+66 b5[1][1][1] b8 b10"/>
    </vehicle>

    <vehicle id="65" depart="2225.00" arrival="2539.00">
        <route edges="a134 a134b a133 a31 a201 a201c a204a[0] a124 b12 b56[0] b56[1][0] b56[1][1] b5[1][0]+66 b5[1][1][1] b8 b10"/>
    </vehicle>

    <vehicle id="69" depart="2355.00" arrival="2543.00">
        <route edges="a190 a77[0] a53[1][0] a79 a74 a72[1] a69 a161 a122 a1b a1 a204a[0] a204b[0] a204[1][0] a204[1][1]"/>
    </vehicle>

    <vehicle id="70" depart="2361.00" arrival="2543.00">
        <route edges="a190 a77[0] a53[1][0] a79 a74 a72[1] a69 a161 a122 a1b a1 a204a[0] a204b[0] a204[1][0] a204[1][1]"/>
    </vehicle>

    <vehicle id="67" depart="2261.00" arrival="2586.00">
        <route edges="a203[0] b12 b50[0] b50[1] b50[1]a a181 a18 a17 a71 b2[0] b2[1][0] b2[1][1][0] b2[1][1][1] b2[1][1][1]b"/>
    </vehicle>

    <vehicle id="71" depart="2399.00" arrival="2642.00">
        <route edges="a190 a77[0] a53[1][0] a79 a74 a72[1] a69 a161 a122 a1b a1 a204a[0] a204b[0] a204[1][0] a204[1][1]"/>
    </vehicle>

    <vehicle id="74" depart="2490.00" arrival="2650.00">
        <route edges="a13 a104 a24 a22 a59 a53cd a53[0] a53[1][0] a79 a68 a11 b2[0] b2[1][0] b2[1][1][0] b2[1][1][1] b2[1][1][1]b"/>
    </vehicle>

    <vehicle id="73" depart="2428.00" arrival="2700.00">
        <route edges="a134 a134b a133 a31 a201 a201c a204a[0] a124 b12 b56[0] b56[1][0] b56[1][1] b5[1][0]+66 b5[1][1][1] b8 b10"/>
    </vehicle>

    <vehicle id="72" depart="2418.00" arrival="2719.00">
        <route edges="a203[0] b12 b50[0] b50[1] b50[1]a a181 a18 a17 a71 b2[0] b2[1][0] b2[1][1][0] b2[1][1][1] b2[1][1][1]b"/>
    </vehicle>

    <vehicle id="75" depart="2598.00" arrival="2742.00">
        <route edges="a67 a80 a127 a77[1][0] a77ab a77bc a77cd a53cd a53[0] a53[1][0] a79 a68 a11 b38[0] b38[0]a b38[1][0] b96 b49[1] b55 b53"/>
    </vehicle>

    <vehicle id="76" depart="2608.00" arrival="2842.00">
        <route edges="a203[0] b12 b50[0] b50[1] b50[1]a a181 a18 a17 a71 b2[0] b2[1][0] b2[1][1][0] b2[1][1][1] b2[1][1][1]b"/>
    </vehicle>

    <vehicle id="77" depart="2654.00" arrival="2879.00">
        <route edges="a13 a104 a24 a22 a59 a53cd a53[0] a53[1][0] a79 a68 a11 b2[0] b2[1][0] b2[1][1][0] b2[1][1][1] b2[1][1][1]b"/>
    </vehicle>

    <vehicle id="78" depart="2716.00" arrival="2950.00">
        <route edges="a134 a134b a133 a31 a201 a201c a204a[0] a124 b12 b56[0] b56[1][0] b56[1][1] b5[1][0]+66 b5[1][1][1] b8 b10"/>
    </vehicle>

    <vehicle id="79" depart="2767.00" arrival="2966.00">
        <route edges="a203[0] b12 b50[0] b50[1] b50[1]a a181 a18 a17 a71 b2[0] b2[1][0] b2[1][1][0] b2[1][1][1] b2[1][1][1]b"/>
    </vehicle>

    <vehicle id="84" depart="2852.00" arrival="2991.00">
        <route edges="a13 a104 a24 a22 a59 a53cd a53[0] a53[1][0] a79 a68 a11 b2[0] b2[1][0] b2[1][1][0] b2[1][1][1] b2[1][1][1]b"/>
    </vehicle>

    <vehicle id="83" depart="2837.00" arrival="3003.00">
        <route edges="a13 a104 a24 a22 a59 a53cd a53[0] a53[1][0] a79 a68 a11 b2[0] b2[1][0] b2[1][1][0] b2[1][1][1] b2[1][1][1]b"/>
    </vehicle>

    <vehicle id="80" depart="2797.00" arrival="3024.00">
        <route edges="a210 a43[0] a43[1] a201 a201c a204a[0] a124 b12 b53 b53a"/>
    </vehicle>

    <vehicle id="81" depart="2818.00" arrival="3028.00">
        <route edges="a210 a43[0] a43[1] a201 a201c a204a[0] a124 b12 b53 b53a"/>
    </vehicle>

    <vehicle id="82" depart="2831.00" arrival="3030.00">
        <route edges="a210 a43[0] a43[1] a201 a201c a204a[0] a124 b12 b53 b53a"/>
    </vehicle>

    <vehicle id="87" depart="2972.00" arrival="3139.00">
        <route edges="a190 a77[0] a53[1][0] a79 a74 a72[1] a69 a161 a122 a1b a1 a204a[0] a204b[0] a204[1][0] a204[1][1]"/>
    </vehicle>

    <vehicle id="85" depart="2948.00" arrival="3143.00">
        <route edges="a190 a77[0] a53[1][0] a79 a74 a72[1] a69 a161 a122 a1b a1 a204a[0] a204b[0] a204[1][0] a204[1][1]"/>
    </vehicle>

    <vehicle id="86" depart="2971.00" arrival="3178.00">
        <route edges="a210 a43[0] a43[1] a201 a201c a204a[0] a124 b12 b53 b53a"/>
    </vehicle>

    <vehicle id="89" depart="3053.00" arrival="3274.00">
        <route edges="a190 a77[0] a53[1][0] a79 a74 a72[1] a69 a161 a122 a1b a1 a204a[0] a204b[0] a204[1][0] a204[1][1]"/>
    </vehicle>

    <vehicle id="88" depart="2986.00" arrival="3287.00">
        <route edges="a134 a134b a133 a31 a201 a201c a204a[0] a124 b12 b56[0] b56[1][0] b56[1][1] b5[1][0]+66 b5[1][1][1] b8 b10"/>
    </vehicle>

    <vehicle id="90" depart="3066.00" arrival="3397.00">
        <route edges="a195 a159 a42 a39 a35 a38 a15 a24 a22 a59 a53cd a53[0] a53[1][0] a79 a68 a11 b2[0] b2[1][0] b2[1][1][0] b2[1][1][1] b2[1][1][1]b"/>
    </vehicle>

    <vehicle id="94" depart="3234.00" arrival="3421.00">
        <route edges="a190 a77[0] a53[1][0] a79 a74 a72[1] a69 a161 a122 a1b a1 a204a[0] a204b[0] a204[1][0] a204[1][1]"/>
    </vehicle>

    <vehicle id="92" depart="3145.00" arrival="3455.00">
        <route edges="a37 a36 a40 a153 a87[0] a20001+87[1][0] a87[1][1] am90 am91 a88 a187 a191 a17 a71 b2[0] b2[1][0] b2[1][1][0] b2[1][1][1] b2[1][1][1]b"/>
    </vehicle>

    <vehicle id="93" depart="3154.00" arrival="3468.00">
        <route edges="a134 a134b a133 a31 a201 a201c a204a[0] a124 b12 b56[0] b56[1][0] b56[1][1] b5[1][0]+66 b5[1][1][1] b8 b10"/>
    </vehicle>

    <vehicle id="91" depart="3113.00" arrival="3470.00">
        <route edges="a134 a134b a133 a31 a201 a201c a204a[0] a124 b12 b56[0] b56[1][0] b56[1][1] b5[1][0]+66 b5[1][1][1] b8 b10"/>
    </vehicle>

    <vehicle id="99" depart="3447.00" arrival="3609.00">
        <route edges="a78[0] a56a a56b a77bc a77cd a53cd a53[0] a53[1][0] a79 a68 a11 b2[0] b2[1][0] b2[1][1][0] b2[1][1][1] b2[1][1][1]b"/>
    </vehicle>

    <vehicle id="95" depart="3358.00" arrival="3612.00">
        <route edges="a195 a159 a42 a39 a35 a38 a15 a24 a22 a59 a53cd a53[0] a53[1][0] a79 a68 a11 b2[0] b2[1][0] b2[1][1][0] b2[1][1][1] b2[1][1][1]b"/>
    </vehicle>

    <vehicle id="96" depart="3372.00" arrival="3640.00">
        <route edges="a191 a17 a71 a67 a80 a127 a77[1][0] a77ab a77bc a77cd a53cd a53[0] a78[1][1] a189[0] a189[1][0]+20000 a189[1][1] a188 a87[0] a20001+87[1][0] a87[1][1] am90 am91 a88 a187 a190"/>
    </vehicle>

    <vehicle id="97" depart="3393.00" arrival="3703.00">
        <route edges="a203[0] b12 b50[0] b50[1] b50[1]a a181 a18 a17 a71 b2[0] b2[1][0] b2[1][1][0] b2[1][1][1] b2[1][1][1]b"/>
    </vehicle>

    <vehicle id="98" depart="3431.00" arrival="3750.00">
        <route edges="a2 a202 a34 a134 a134b a133 a31 a201 a201c a204a[0] a124 b12 b56[0] b56[1][0] b56[1][1] b5[1][0]+66 b5[1][1][1] b8 b3[1] b3[1]b"/>
    </vehicle>

</routes>
