<?xml version="1.0" encoding="UTF-8"?>

<!-- generated on 2025-03-21 17:50:00 by Eclipse SUMO sumo Version 1.21.0
<sumoConfiguration xmlns:xsi="http://www.w3.org/2001/XMLSchema-instance" xsi:noNamespaceSchemaLocation="http://sumo.dlr.de/xsd/sumoConfiguration.xsd">

    <input>
        <net-file value="${STATICPATH}/joined_lanes.net.xml"/>
        <route-files value="${SIMULATIONPATH}/generatedRoutes.rou.xml"/>
        <additional-files value="${STATICPATH}/detectors.add.xml,${STATICPATH}/joined_vtypes.add.xml,${STATICPATH}/joined_tls.add.xml"/>
    </input>

    <output>
        <fcd-output value="${SIMULATIONPATH}/fcd.xml"/>
        <queue-output value="${SIMULATIONPATH}/queue.xml"/>
        <summary-output value="${SIMULATIONPATH}/summary.xml"/>
        <tripinfo-output value="${SIMULATIONPATH}/tripinfos.xml"/>
        <vehroute-output value="${SIMULATIONPATH}/vehroute.xml"/>
        <save-state.prefix value="configs\state"/>
    </output>

    <processing>
        <ignore-junction-blocker value="1"/>
        <ignore-route-errors value="true"/>
        <time-to-teleport value="-1"/>
    </processing>

    <report>
        <log value="C:/Users/fabio/Desktop/sumo_log.txt"/>
        <no-step-log value="true"/>
    </report>

    <emissions>
        <phemlight-path value="configs\./PHEMlight/"/>
    </emissions>

    <traci_server>
        <remote-port value="60209"/>
    </traci_server>

</sumoConfiguration>
-->

<tripinfos xmlns:xsi="http://www.w3.org/2001/XMLSchema-instance" xsi:noNamespaceSchemaLocation="http://sumo.dlr.de/xsd/tripinfo_file.xsd">
    <tripinfo id="0" depart="5.00" departLane="a122_0" departPos="5.10" departSpeed="0.00" departDelay="0.55" arrival="253.00" arrivalLane="b2[1][1][1]b_0" arrivalPos="325.74" arrivalSpeed="13.74" duration="248.00" routeLength="2661.65" waitingTime="37.00" waitingCount="3" stopTime="0.00" timeLoss="64.70" rerouteNo="0" devices="vehroute_0 tripinfo_0 fcd_0" vType="DEFAULT_VEHTYPE" speedFactor="1.06" vaporized=""/>
    <tripinfo id="1" depart="57.00" departLane="a122_0" departPos="5.10" departSpeed="0.00" departDelay="0.04" arrival="371.00" arrivalLane="b2[1][1][1]b_0" arrivalPos="325.74" arrivalSpeed="12.57" duration="314.00" routeLength="2657.16" waitingTime="83.00" waitingCount="1" stopTime="0.00" timeLoss="106.88" rerouteNo="0" devices="vehroute_1 tripinfo_1 fcd_1" vType="DEFAULT_VEHTYPE" speedFactor="0.94" vaporized=""/>
    <tripinfo id="2" depart="73.00" departLane="a122_0" departPos="5.10" departSpeed="0.00" departDelay="0.91" arrival="384.00" arrivalLane="b2[1][1][1]b_0" arrivalPos="325.74" arrivalSpeed="12.93" duration="311.00" routeLength="2657.16" waitingTime="91.00" waitingCount="2" stopTime="0.00" timeLoss="118.93" rerouteNo="0" devices="vehroute_2 tripinfo_2 fcd_2" vType="DEFAULT_VEHTYPE" speedFactor="1.01" vaporized=""/>
    <tripinfo id="3" depart="83.00" departLane="a210_0" departPos="5.10" departSpeed="0.00" departDelay="0.58" arrival="417.00" arrivalLane="b3[1]b_0" arrivalPos="239.77" arrivalSpeed="14.05" duration="334.00" routeLength="3027.75" waitingTime="93.00" waitingCount="4" stopTime="0.00" timeLoss="131.23" rerouteNo="0" devices="vehroute_3 tripinfo_3 fcd_3" vType="DEFAULT_VEHTYPE" speedFactor="1.08" vaporized=""/>
    <tripinfo id="4" depart="189.00" departLane="a122_0" departPos="5.10" departSpeed="0.00" departDelay="0.58" arrival="486.00" arrivalLane="b2[1][1][1]b_0" arrivalPos="325.74" arrivalSpeed="13.19" duration="297.00" routeLength="2661.65" waitingTime="79.00" waitingCount="2" stopTime="0.00" timeLoss="108.62" rerouteNo="0" devices="vehroute_4 tripinfo_4 fcd_4" vType="DEFAULT_VEHTYPE" speedFactor="1.03" vaporized=""/>
    <tripinfo id="5" depart="211.00" departLane="a122_0" departPos="5.10" departSpeed="0.00" departDelay="0.56" arrival="504.00" arrivalLane="b2[1][1][1]b_0" arrivalPos="325.74" arrivalSpeed="10.67" duration="293.00" routeLength="2657.16" waitingTime="32.00" waitingCount="2" stopTime="0.00" timeLoss="59.52" rerouteNo="0" devices="vehroute_5 tripinfo_5 fcd_5" vType="DEFAULT_VEHTYPE" speedFactor="0.83" vaporized=""/>
    <tripinfo id="6" depart="228.00" departLane="a122_0" departPos="5.10" departSpeed="0.00" departDelay="0.81" arrival="621.00" arrivalLane="b2[1][1][1]b_0" arrivalPos="325.74" arrivalSpeed="13.23" duration="393.00" routeLength="2657.16" waitingTime="169.00" waitingCount="4" stopTime="0.00" timeLoss="207.44" rerouteNo="0" devices="vehroute_6 tripinfo_6 fcd_6" vType="DEFAULT_VEHTYPE" speedFactor="1.05" vaporized=""/>
    <tripinfo id="9" depart="335.00" departLane="a122_0" departPos="5.10" departSpeed="0.00" departDelay="0.46" arrival="625.00" arrivalLane="b2[1][1][1]b_1" arrivalPos="325.74" arrivalSpeed="11.52" duration="290.00" routeLength="2657.16" waitingTime="38.00" waitingCount="1" stopTime="0.00" timeLoss="63.51" rerouteNo="0" devices="vehroute_9 tripinfo_9 fcd_9" vType="DEFAULT_VEHTYPE" speedFactor="0.86" vaporized=""/>
    <tripinfo id="8" depart="320.00" departLane="a122_0" departPos="5.10" departSpeed="0.00" departDelay="0.44" arrival="626.00" arrivalLane="b2[1][1][1]b_0" arrivalPos="325.74" arrivalSpeed="12.14" duration="306.00" routeLength="2661.65" waitingTime="64.00" waitingCount="3" stopTime="0.00" timeLoss="98.08" rerouteNo="0" devices="vehroute_8 tripinfo_8 fcd_8" vType="DEFAULT_VEHTYPE" speedFactor="0.94" vaporized=""/>
    <tripinfo id="7" depart="252.00" departLane="a122_0" departPos="5.10" departSpeed="0.00" departDelay="0.25" arrival="627.00" arrivalLane="b2[1][1][1]b_2" arrivalPos="325.74" arrivalSpeed="11.51" duration="375.00" routeLength="2654.20" waitingTime="117.00" waitingCount="4" stopTime="0.00" timeLoss="156.00" rerouteNo="0" devices="vehroute_7 tripinfo_7 fcd_7" vType="DEFAULT_VEHTYPE" speedFactor="0.89" vaporized=""/>
    <tripinfo id="10" depart="424.00" departLane="a122_0" departPos="5.10" departSpeed="0.00" departDelay="0.46" arrival="745.00" arrivalLane="b2[1][1][1]b_0" arrivalPos="325.74" arrivalSpeed="14.87" duration="321.00" routeLength="2658.69" waitingTime="102.00" waitingCount="4" stopTime="0.00" timeLoss="143.06" rerouteNo="0" devices="vehroute_10 tripinfo_10 fcd_10" vType="DEFAULT_VEHTYPE" speedFactor="1.09" vaporized=""/>
    <tripinfo id="11" depart="432.00" departLane="a122_0" departPos="5.10" departSpeed="0.00" departDelay="0.62" arrival="746.00" arrivalLane="b2[1][1][1]b_1" arrivalPos="325.74" arrivalSpeed="13.70" duration="314.00" routeLength="2657.16" waitingTime="83.00" waitingCount="3" stopTime="0.00" timeLoss="124.73" rerouteNo="0" devices="vehroute_11 tripinfo_11 fcd_11" vType="DEFAULT_VEHTYPE" speedFactor="1.03" vaporized=""/>
    <tripinfo id="13" depart="512.00" departLane="a210_0" departPos="5.10" departSpeed="0.00" departDelay="1.61" arrival="756.00" arrivalLane="b3[1]b_0" arrivalPos="239.77" arrivalSpeed="15.55" duration="244.00" routeLength="3027.75" waitingTime="32.00" waitingCount="1" stopTime="0.00" timeLoss="49.35" rerouteNo="0" devices="vehroute_13 tripinfo_13 fcd_13" vType="DEFAULT_VEHTYPE" speedFactor="1.12" vaporized=""/>
    <tripinfo id="12" depart="509.00" departLane="a210_0" departPos="5.10" departSpeed="0.00" departDelay="0.40" arrival="758.00" arrivalLane="b3[1]b_1" arrivalPos="239.77" arrivalSpeed="14.13" duration="249.00" routeLength="3025.46" waitingTime="21.00" waitingCount="1" stopTime="0.00" timeLoss="39.50" rerouteNo="0" devices="vehroute_12 tripinfo_12 fcd_12" vType="DEFAULT_VEHTYPE" speedFactor="1.05" vaporized=""/>
    <tripinfo id="14" depart="554.00" departLane="a122_0" departPos="5.10" departSpeed="0.00" departDelay="0.35" arrival="872.00" arrivalLane="b2[1][1][1]b_0" arrivalPos="325.74" arrivalSpeed="13.03" duration="318.00" routeLength="2658.69" waitingTime="79.00" waitingCount="5" stopTime="0.00" timeLoss="122.28" rerouteNo="0" devices="vehroute_14 tripinfo_14 fcd_14" vType="DEFAULT_VEHTYPE" speedFactor="0.99" vaporized=""/>
    <tripinfo id="17" depart="614.00" departLane="a122_0" departPos="5.10" departSpeed="0.00" departDelay="0.28" arrival="874.00" arrivalLane="b2[1][1][1]b_1" arrivalPos="325.74" arrivalSpeed="12.03" duration="260.00" routeLength="2657.16" waitingTime="26.00" waitingCount="2" stopTime="0.00" timeLoss="54.38" rerouteNo="0" devices="vehroute_17 tripinfo_17 fcd_17" vType="DEFAULT_VEHTYPE" speedFactor="0.94" vaporized=""/>
    <tripinfo id="15" depart="574.00" departLane="a122_0" departPos="5.10" departSpeed="0.00" departDelay="0.51" arrival="876.00" arrivalLane="b2[1][1][1]b_0" arrivalPos="325.74" arrivalSpeed="11.82" duration="302.00" routeLength="2654.20" waitingTime="56.00" waitingCount="4" stopTime="0.00" timeLoss="92.88" rerouteNo="0" devices="vehroute_15 tripinfo_15 fcd_15" vType="DEFAULT_VEHTYPE" speedFactor="0.93" vaporized=""/>
    <tripinfo id="16" depart="583.00" departLane="a122_0" departPos="5.10" departSpeed="0.00" departDelay="0.65" arrival="877.00" arrivalLane="b2[1][1][1]b_1" arrivalPos="325.74" arrivalSpeed="11.87" duration="294.00" routeLength="2654.20" waitingTime="34.00" waitingCount="3" stopTime="0.00" timeLoss="72.77" rerouteNo="0" devices="vehroute_16 tripinfo_16 fcd_16" vType="DEFAULT_VEHTYPE" speedFactor="0.88" vaporized=""/>
    <tripinfo id="18" depart="686.00" departLane="a210_0" departPos="5.10" departSpeed="0.00" departDelay="0.83" arrival="979.00" arrivalLane="b3[1]b_0" arrivalPos="239.77" arrivalSpeed="12.11" duration="293.00" routeLength="3030.71" waitingTime="28.00" waitingCount="3" stopTime="0.00" timeLoss="58.21" rerouteNo="0" devices="vehroute_18 tripinfo_18 fcd_18" vType="DEFAULT_VEHTYPE" speedFactor="0.94" vaporized=""/>
    <tripinfo id="19" depart="764.00" departLane="a122_0" departPos="5.10" departSpeed="0.00" departDelay="0.86" arrival="994.00" arrivalLane="b2[1][1][1]b_0" arrivalPos="325.74" arrivalSpeed="15.10" duration="230.00" routeLength="2657.16" waitingTime="32.00" waitingCount="2" stopTime="0.00" timeLoss="62.66" rerouteNo="0" devices="vehroute_19 tripinfo_19 fcd_19" vType="DEFAULT_VEHTYPE" speedFactor="1.16" vaporized=""/>
    <tripinfo id="20" depart="806.00" departLane="a122_0" departPos="5.10" departSpeed="0.00" departDelay="0.99" arrival="1121.00" arrivalLane="b2[1][1][1]b_1" arrivalPos="325.74" arrivalSpeed="13.21" duration="315.00" routeLength="2657.16" waitingTime="88.00" waitingCount="3" stopTime="0.00" timeLoss="124.46" rerouteNo="0" devices="vehroute_20 tripinfo_20 fcd_20" vType="DEFAULT_VEHTYPE" speedFactor="1.02" vaporized=""/>
    <tripinfo id="21" depart="819.00" departLane="a122_0" departPos="5.10" departSpeed="0.00" departDelay="0.51" arrival="1122.00" arrivalLane="b2[1][1][1]b_0" arrivalPos="325.74" arrivalSpeed="13.75" duration="303.00" routeLength="2658.69" waitingTime="75.00" waitingCount="4" stopTime="0.00" timeLoss="110.91" rerouteNo="0" devices="vehroute_21 tripinfo_21 fcd_21" vType="DEFAULT_VEHTYPE" speedFactor="1.01" vaporized=""/>
    <tripinfo id="22" depart="831.00" departLane="a122_0" departPos="5.10" departSpeed="0.00" departDelay="0.01" arrival="1125.00" arrivalLane="b2[1][1][1]b_0" arrivalPos="325.74" arrivalSpeed="13.31" duration="294.00" routeLength="2654.20" waitingTime="53.00" waitingCount="4" stopTime="0.00" timeLoss="95.07" rerouteNo="0" devices="vehroute_22 tripinfo_22 fcd_22" vType="DEFAULT_VEHTYPE" speedFactor="0.97" vaporized=""/>
    <tripinfo id="23" depart="861.00" departLane="a210_0" departPos="5.10" departSpeed="0.00" departDelay="0.40" arrival="1163.00" arrivalLane="b3[1]b_0" arrivalPos="239.77" arrivalSpeed="11.73" duration="302.00" routeLength="3030.71" waitingTime="29.00" waitingCount="2" stopTime="0.00" timeLoss="55.13" rerouteNo="0" devices="vehroute_23 tripinfo_23 fcd_23" vType="DEFAULT_VEHTYPE" speedFactor="0.89" vaporized=""/>
    <tripinfo id="24" depart="878.00" departLane="a122_0" departPos="5.10" departSpeed="0.00" departDelay="0.84" arrival="1253.00" arrivalLane="b2[1][1][1]b_0" arrivalPos="325.74" arrivalSpeed="10.37" duration="375.00" routeLength="2657.16" waitingTime="100.00" waitingCount="3" stopTime="0.00" timeLoss="140.35" rerouteNo="0" devices="vehroute_24 tripinfo_24 fcd_24" vType="DEFAULT_VEHTYPE" speedFactor="0.83" vaporized=""/>
    <tripinfo id="26" depart="954.00" departLane="a210_0" departPos="5.10" departSpeed="0.00" departDelay="0.38" arrival="1297.00" arrivalLane="b3[1]b_0" arrivalPos="239.77" arrivalSpeed="11.53" duration="343.00" routeLength="3030.71" waitingTime="66.00" waitingCount="4" stopTime="0.00" timeLoss="103.72" rerouteNo="0" devices="vehroute_26 tripinfo_26 fcd_26" vType="DEFAULT_VEHTYPE" speedFactor="0.92" vaporized=""/>
    <tripinfo id="25" depart="926.00" departLane="a210_0" departPos="5.10" departSpeed="0.00" departDelay="0.63" arrival="1299.00" arrivalLane="b3[1]b_0" arrivalPos="239.77" arrivalSpeed="11.69" duration="373.00" routeLength="3025.46" waitingTime="88.00" waitingCount="3" stopTime="0.00" timeLoss="121.58" rerouteNo="0" devices="vehroute_25 tripinfo_25 fcd_25" vType="DEFAULT_VEHTYPE" speedFactor="0.87" vaporized=""/>
    <tripinfo id="28" depart="989.00" departLane="a122_0" departPos="5.10" departSpeed="0.00" departDelay="0.66" arrival="1368.00" arrivalLane="b2[1][1][1]b_0" arrivalPos="325.74" arrivalSpeed="15.04" duration="379.00" routeLength="2654.20" waitingTime="158.00" waitingCount="4" stopTime="0.00" timeLoss="207.96" rerouteNo="0" devices="vehroute_28 tripinfo_28 fcd_28" vType="DEFAULT_VEHTYPE" speedFactor="1.13" vaporized=""/>
    <tripinfo id="29" depart="1007.00" departLane="a122_0" departPos="5.10" departSpeed="0.00" departDelay="0.07" arrival="1374.00" arrivalLane="b2[1][1][1]b_1" arrivalPos="325.74" arrivalSpeed="12.71" duration="367.00" routeLength="2654.20" waitingTime="124.00" waitingCount="3" stopTime="0.00" timeLoss="159.05" rerouteNo="0" devices="vehroute_29 tripinfo_29 fcd_29" vType="DEFAULT_VEHTYPE" speedFactor="0.93" vaporized=""/>
    <tripinfo id="27" depart="977.00" departLane="a122_0" departPos="5.10" departSpeed="0.00" departDelay="0.87" arrival="1375.00" arrivalLane="b2[1][1][1]b_0" arrivalPos="325.74" arrivalSpeed="12.86" duration="398.00" routeLength="2661.65" waitingTime="146.00" waitingCount="4" stopTime="0.00" timeLoss="193.62" rerouteNo="0" devices="vehroute_27 tripinfo_27 fcd_27" vType="DEFAULT_VEHTYPE" speedFactor="0.95" vaporized=""/>
    <tripinfo id="30" depart="1084.00" departLane="a210_0" departPos="5.10" departSpeed="0.00" departDelay="0.93" arrival="1419.00" arrivalLane="b3[1]b_0" arrivalPos="239.77" arrivalSpeed="15.21" duration="335.00" routeLength="3030.71" waitingTime="112.00" waitingCount="3" stopTime="0.00" timeLoss="149.23" rerouteNo="0" devices="vehroute_30 tripinfo_30 fcd_30" vType="DEFAULT_VEHTYPE" speedFactor="1.18" vaporized=""/>
    <tripinfo id="31" depart="1162.00" departLane="a210_0" departPos="5.10" departSpeed="0.00" departDelay="0.90" arrival="1419.00" arrivalLane="b3[1]b_1" arrivalPos="239.77" arrivalSpeed="15.01" duration="257.00" routeLength="3025.46" waitingTime="36.00" waitingCount="3" stopTime="0.00" timeLoss="67.57" rerouteNo="0" devices="vehroute_31 tripinfo_31 fcd_31" vType="DEFAULT_VEHTYPE" speedFactor="1.15" vaporized=""/>
    <tripinfo id="32" depart="1201.00" departLane="a122_0" departPos="5.10" departSpeed="0.00" departDelay="0.15" arrival="1497.00" arrivalLane="b2[1][1][1]b_0" arrivalPos="325.74" arrivalSpeed="13.50" duration="296.00" routeLength="2657.16" waitingTime="73.00" waitingCount="2" stopTime="0.00" timeLoss="103.10" rerouteNo="0" devices="vehroute_32 tripinfo_32 fcd_32" vType="DEFAULT_VEHTYPE" speedFactor="1.01" vaporized=""/>
    <tripinfo id="34" depart="1228.00" departLane="a210_0" departPos="5.10" departSpeed="0.00" departDelay="0.08" arrival="1580.00" arrivalLane="b3[1]b_0" arrivalPos="239.77" arrivalSpeed="13.80" duration="352.00" routeLength="3027.75" waitingTime="91.00" waitingCount="3" stopTime="0.00" timeLoss="131.36" rerouteNo="0" devices="vehroute_34 tripinfo_34 fcd_34" vType="DEFAULT_VEHTYPE" speedFactor="0.99" vaporized=""/>
    <tripinfo id="36" depart="1237.00" departLane="a210_0" departPos="5.10" departSpeed="0.00" departDelay="0.18" arrival="1580.00" arrivalLane="b3[1]b_1" arrivalPos="239.77" arrivalSpeed="12.83" duration="343.00" routeLength="3025.46" waitingTime="86.00" waitingCount="3" stopTime="0.00" timeLoss="118.20" rerouteNo="0" devices="vehroute_36 tripinfo_36 fcd_36" vType="DEFAULT_VEHTYPE" speedFactor="0.97" vaporized=""/>
    <tripinfo id="37" depart="1247.00" departLane="a122_0" departPos="5.10" departSpeed="0.00" departDelay="0.24" arrival="1618.00" arrivalLane="b2[1][1][1]b_1" arrivalPos="325.74" arrivalSpeed="15.32" duration="371.00" routeLength="2657.16" waitingTime="153.00" waitingCount="5" stopTime="0.00" timeLoss="207.12" rerouteNo="0" devices="vehroute_37 tripinfo_37 fcd_37" vType="DEFAULT_VEHTYPE" speedFactor="1.18" vaporized=""/>
    <tripinfo id="33" depart="1215.00" departLane="a122_0" departPos="5.10" departSpeed="0.00" departDelay="0.98" arrival="1619.00" arrivalLane="b2[1][1][1]b_0" arrivalPos="325.74" arrivalSpeed="15.65" duration="404.00" routeLength="2661.65" waitingTime="190.00" waitingCount="5" stopTime="0.00" timeLoss="238.13" rerouteNo="0" devices="vehroute_33 tripinfo_33 fcd_33" vType="DEFAULT_VEHTYPE" speedFactor="1.17" vaporized=""/>
    <tripinfo id="35" depart="1231.00" departLane="a122_0" departPos="5.10" departSpeed="0.00" departDelay="0.97" arrival="1622.00" arrivalLane="b2[1][1][1]b_1" arrivalPos="325.74" arrivalSpeed="14.15" duration="391.00" routeLength="2654.20" waitingTime="151.00" waitingCount="5" stopTime="0.00" timeLoss="200.22" rerouteNo="0" devices="vehroute_35 tripinfo_35 fcd_35" vType="DEFAULT_VEHTYPE" speedFactor="1.02" vaporized=""/>
    <tripinfo id="38" depart="1307.00" departLane="a122_0" departPos="5.10" departSpeed="0.00" departDelay="0.40" arrival="1622.00" arrivalLane="b2[1][1][1]b_0" arrivalPos="325.74" arrivalSpeed="14.55" duration="315.00" routeLength="2658.69" waitingTime="84.00" waitingCount="5" stopTime="0.00" timeLoss="138.90" rerouteNo="0" devices="vehroute_38 tripinfo_38 fcd_38" vType="DEFAULT_VEHTYPE" speedFactor="1.10" vaporized=""/>
    <tripinfo id="42" depart="1378.00" departLane="a122_0" departPos="5.10" departSpeed="0.00" departDelay="0.91" arrival="1623.00" arrivalLane="b2[1][1][1]b_2" arrivalPos="325.74" arrivalSpeed="13.87" duration="245.00" routeLength="2657.16" waitingTime="35.00" waitingCount="2" stopTime="0.00" timeLoss="67.26" rerouteNo="0" devices="vehroute_42 tripinfo_42 fcd_42" vType="DEFAULT_VEHTYPE" speedFactor="1.09" vaporized=""/>
    <tripinfo id="40" depart="1363.00" departLane="a122_0" departPos="5.10" departSpeed="0.00" departDelay="0.48" arrival="1625.00" arrivalLane="b2[1][1][1]b_0" arrivalPos="325.74" arrivalSpeed="13.34" duration="262.00" routeLength="2657.16" waitingTime="45.00" waitingCount="2" stopTime="0.00" timeLoss="74.05" rerouteNo="0" devices="vehroute_40 tripinfo_40 fcd_40" vType="DEFAULT_VEHTYPE" speedFactor="1.03" vaporized=""/>
    <tripinfo id="39" depart="1322.00" departLane="a122_0" departPos="5.10" departSpeed="0.00" departDelay="0.96" arrival="1627.00" arrivalLane="b2[1][1][1]b_1" arrivalPos="325.74" arrivalSpeed="11.68" duration="305.00" routeLength="2654.20" waitingTime="48.00" waitingCount="3" stopTime="0.00" timeLoss="89.81" rerouteNo="0" devices="vehroute_39 tripinfo_39 fcd_39" vType="DEFAULT_VEHTYPE" speedFactor="0.90" vaporized=""/>
    <tripinfo id="45" depart="1445.00" departLane="a210_0" departPos="5.10" departSpeed="0.00" departDelay="0.72" arrival="1727.00" arrivalLane="b3[1]b_0" arrivalPos="239.77" arrivalSpeed="14.64" duration="282.00" routeLength="3030.71" waitingTime="45.00" waitingCount="4" stopTime="0.00" timeLoss="80.64" rerouteNo="0" devices="vehroute_45 tripinfo_45 fcd_45" vType="DEFAULT_VEHTYPE" speedFactor="1.09" vaporized=""/>
    <tripinfo id="41" depart="1372.00" departLane="a210_0" departPos="5.10" departSpeed="0.00" departDelay="0.73" arrival="1731.00" arrivalLane="b3[1]b_0" arrivalPos="239.77" arrivalSpeed="13.07" duration="359.00" routeLength="3025.46" waitingTime="99.00" waitingCount="3" stopTime="0.00" timeLoss="130.08" rerouteNo="0" devices="vehroute_41 tripinfo_41 fcd_41" vType="DEFAULT_VEHTYPE" speedFactor="0.96" vaporized=""/>
    <tripinfo id="43" depart="1408.00" departLane="a122_0" departPos="5.10" departSpeed="0.00" departDelay="0.25" arrival="1747.00" arrivalLane="b2[1][1][1]b_0" arrivalPos="325.74" arrivalSpeed="14.12" duration="339.00" routeLength="2658.69" waitingTime="107.00" waitingCount="5" stopTime="0.00" timeLoss="152.22" rerouteNo="0" devices="vehroute_43 tripinfo_43 fcd_43" vType="DEFAULT_VEHTYPE" speedFactor="1.04" vaporized=""/>
    <tripinfo id="46" depart="1475.00" departLane="a122_0" departPos="5.10" departSpeed="0.00" departDelay="0.88" arrival="1747.00" arrivalLane="b2[1][1][1]b_1" arrivalPos="325.74" arrivalSpeed="12.88" duration="272.00" routeLength="2657.16" waitingTime="39.00" waitingCount="3" stopTime="0.00" timeLoss="77.68" rerouteNo="0" devices="vehroute_46 tripinfo_46 fcd_46" vType="DEFAULT_VEHTYPE" speedFactor="1.00" vaporized=""/>
    <tripinfo id="44" depart="1430.00" departLane="a122_0" departPos="5.10" departSpeed="0.00" departDelay="0.16" arrival="1748.00" arrivalLane="b2[1][1][1]b_0" arrivalPos="325.74" arrivalSpeed="13.90" duration="318.00" routeLength="2654.20" waitingTime="82.00" waitingCount="3" stopTime="0.00" timeLoss="133.04" rerouteNo="0" devices="vehroute_44 tripinfo_44 fcd_44" vType="DEFAULT_VEHTYPE" speedFactor="1.04" vaporized=""/>
    <tripinfo id="51" depart="1607.00" departLane="a122_0" departPos="5.10" departSpeed="0.00" departDelay="0.13" arrival="1869.00" arrivalLane="b2[1][1][1]b_0" arrivalPos="325.74" arrivalSpeed="15.31" duration="262.00" routeLength="2654.20" waitingTime="49.00" waitingCount="4" stopTime="0.00" timeLoss="95.94" rerouteNo="0" devices="vehroute_51 tripinfo_51 fcd_51" vType="DEFAULT_VEHTYPE" speedFactor="1.17" vaporized=""/>
    <tripinfo id="52" depart="1645.00" departLane="a122_0" departPos="5.10" departSpeed="0.00" departDelay="0.31" arrival="1872.00" arrivalLane="b2[1][1][1]b_0" arrivalPos="325.74" arrivalSpeed="14.03" duration="227.00" routeLength="2654.20" waitingTime="8.00" waitingCount="1" stopTime="0.00" timeLoss="36.38" rerouteNo="0" devices="vehroute_52 tripinfo_52 fcd_52" vType="DEFAULT_VEHTYPE" speedFactor="1.02" vaporized=""/>
    <tripinfo id="47" depart="1522.00" departLane="a210_0" departPos="5.10" departSpeed="0.00" departDelay="0.32" arrival="1891.00" arrivalLane="b3[1]b_0" arrivalPos="239.77" arrivalSpeed="12.05" duration="369.00" routeLength="3030.71" waitingTime="96.00" waitingCount="2" stopTime="0.00" timeLoss="125.66" rerouteNo="0" devices="vehroute_47 tripinfo_47 fcd_47" vType="DEFAULT_VEHTYPE" speedFactor="0.90" vaporized=""/>
    <tripinfo id="50" depart="1605.00" departLane="a210_0" departPos="5.10" departSpeed="0.00" departDelay="0.15" arrival="1902.00" arrivalLane="b3[1]b_0" arrivalPos="239.77" arrivalSpeed="11.80" duration="297.00" routeLength="3030.71" waitingTime="13.00" waitingCount="1" stopTime="0.00" timeLoss="40.46" rerouteNo="0" devices="vehroute_50 tripinfo_50 fcd_50" vType="DEFAULT_VEHTYPE" speedFactor="0.85" vaporized=""/>
    <tripinfo id="53" depart="1710.00" departLane="a122_0" departPos="5.10" departSpeed="0.00" departDelay="0.41" arrival="1996.00" arrivalLane="b2[1][1][1]b_1" arrivalPos="325.74" arrivalSpeed="14.69" duration="286.00" routeLength="2658.69" waitingTime="65.00" waitingCount="4" stopTime="0.00" timeLoss="108.70" rerouteNo="0" devices="vehroute_53 tripinfo_53 fcd_53" vType="DEFAULT_VEHTYPE" speedFactor="1.10" vaporized=""/>
    <tripinfo id="48" depart="1593.00" departLane="a122_0" departPos="5.10" departSpeed="0.00" departDelay="0.32" arrival="2001.00" arrivalLane="b2[1][1][1]b_1" arrivalPos="325.74" arrivalSpeed="11.06" duration="408.00" routeLength="2657.16" waitingTime="141.00" waitingCount="4" stopTime="0.00" timeLoss="186.43" rerouteNo="0" devices="vehroute_48 tripinfo_48 fcd_48" vType="DEFAULT_VEHTYPE" speedFactor="0.88" vaporized=""/>
    <tripinfo id="49" depart="1595.00" departLane="a122_0" departPos="5.10" departSpeed="0.00" departDelay="1.22" arrival="2002.00" arrivalLane="b2[1][1][1]b_0" arrivalPos="325.74" arrivalSpeed="11.12" duration="407.00" routeLength="2658.69" waitingTime="131.00" waitingCount="5" stopTime="0.00" timeLoss="178.51" rerouteNo="0" devices="vehroute_49 tripinfo_49 fcd_49" vType="DEFAULT_VEHTYPE" speedFactor="0.85" vaporized=""/>
    <tripinfo id="57" depart="1917.00" departLane="a122_0" departPos="5.10" departSpeed="0.00" departDelay="0.07" arrival="2204.00" arrivalLane="b2[1][1][1]b_1" arrivalPos="325.74" arrivalSpeed="15.41" duration="287.00" routeLength="2661.65" waitingTime="80.00" waitingCount="2" stopTime="0.00" timeLoss="116.28" rerouteNo="0" devices="vehroute_57 tripinfo_57 fcd_57" vType="DEFAULT_VEHTYPE" speedFactor="1.14" vaporized=""/>
    <tripinfo id="54" depart="1805.00" departLane="a122_0" departPos="5.10" departSpeed="0.00" departDelay="0.85" arrival="2210.00" arrivalLane="b2[1][1][1]b_1" arrivalPos="325.74" arrivalSpeed="12.94" duration="405.00" routeLength="2658.69" waitingTime="170.00" waitingCount="4" stopTime="0.00" timeLoss="211.23" rerouteNo="0" devices="vehroute_54 tripinfo_54 fcd_54" vType="DEFAULT_VEHTYPE" speedFactor="1.00" vaporized=""/>
    <tripinfo id="55" depart="1825.00" departLane="a122_0" departPos="5.10" departSpeed="0.00" departDelay="0.38" arrival="2211.00" arrivalLane="b2[1][1][1]b_0" arrivalPos="325.74" arrivalSpeed="12.79" duration="386.00" routeLength="2657.16" waitingTime="156.00" waitingCount="3" stopTime="0.00" timeLoss="190.87" rerouteNo="0" devices="vehroute_55 tripinfo_55 fcd_55" vType="DEFAULT_VEHTYPE" speedFactor="1.00" vaporized=""/>
    <tripinfo id="58" depart="1944.00" departLane="a122_0" departPos="5.10" departSpeed="0.00" departDelay="0.96" arrival="2213.00" arrivalLane="b2[1][1][1]b_0" arrivalPos="325.74" arrivalSpeed="13.75" duration="269.00" routeLength="2657.16" waitingTime="50.00" waitingCount="2" stopTime="0.00" timeLoss="79.93" rerouteNo="0" devices="vehroute_58 tripinfo_58 fcd_58" vType="DEFAULT_VEHTYPE" speedFactor="1.02" vaporized=""/>
    <tripinfo id="56" depart="1836.00" departLane="a122_0" departPos="5.10" departSpeed="0.00" departDelay="0.99" arrival="2221.00" arrivalLane="b2[1][1][1]b_0" arrivalPos="325.74" arrivalSpeed="11.69" duration="385.00" routeLength="2654.20" waitingTime="136.00" waitingCount="3" stopTime="0.00" timeLoss="169.10" rerouteNo="0" devices="vehroute_56 tripinfo_56 fcd_56" vType="DEFAULT_VEHTYPE" speedFactor="0.90" vaporized=""/>
    <tripinfo id="60" depart="2069.00" departLane="a122_0" departPos="5.10" departSpeed="0.00" departDelay="0.49" arrival="2328.00" arrivalLane="b2[1][1][1]b_0" arrivalPos="325.74" arrivalSpeed="14.11" duration="259.00" routeLength="2657.16" waitingTime="47.00" waitingCount="1" stopTime="0.00" timeLoss="79.70" rerouteNo="0" devices="vehroute_60 tripinfo_60 fcd_60" vType="DEFAULT_VEHTYPE" speedFactor="1.08" vaporized=""/>
    <tripinfo id="61" depart="2090.00" departLane="a122_0" departPos="5.10" departSpeed="0.00" departDelay="0.29" arrival="2329.00" arrivalLane="b2[1][1][1]b_1" arrivalPos="325.74" arrivalSpeed="14.47" duration="239.00" routeLength="2657.16" waitingTime="44.00" waitingCount="1" stopTime="0.00" timeLoss="65.60" rerouteNo="0" devices="vehroute_61 tripinfo_61 fcd_61" vType="DEFAULT_VEHTYPE" speedFactor="1.12" vaporized=""/>
    <tripinfo id="59" depart="2040.00" departLane="a122_0" departPos="5.10" departSpeed="0.00" departDelay="0.33" arrival="2337.00" arrivalLane="b2[1][1][1]b_0" arrivalPos="325.74" arrivalSpeed="12.46" duration="297.00" routeLength="2661.65" waitingTime="61.00" waitingCount="3" stopTime="0.00" timeLoss="96.84" rerouteNo="0" devices="vehroute_59 tripinfo_59 fcd_59" vType="DEFAULT_VEHTYPE" speedFactor="0.97" vaporized=""/>
    <tripinfo id="62" depart="2135.00" departLane="a122_0" departPos="5.10" departSpeed="0.00" departDelay="0.88" arrival="2456.00" arrivalLane="b2[1][1][1]b_1" arrivalPos="325.74" arrivalSpeed="13.71" duration="321.00" routeLength="2658.69" waitingTime="84.00" waitingCount="4" stopTime="0.00" timeLoss="129.56" rerouteNo="0" devices="vehroute_62 tripinfo_62 fcd_62" vType="DEFAULT_VEHTYPE" speedFactor="1.02" vaporized=""/>
    <tripinfo id="63" depart="2145.00" departLane="a122_0" departPos="5.10" departSpeed="0.00" departDelay="0.30" arrival="2457.00" arrivalLane="b2[1][1][1]b_0" arrivalPos="325.74" arrivalSpeed="13.06" duration="312.00" routeLength="2654.20" waitingTime="78.00" waitingCount="4" stopTime="0.00" timeLoss="115.58" rerouteNo="0" devices="vehroute_63 tripinfo_63 fcd_63" vType="DEFAULT_VEHTYPE" speedFactor="0.99" vaporized=""/>
    <tripinfo id="64" depart="2150.00" departLane="a122_0" departPos="5.10" departSpeed="0.00" departDelay="0.63" arrival="2463.00" arrivalLane="b2[1][1][1]b_0" arrivalPos="325.74" arrivalSpeed="12.12" duration="313.00" routeLength="2654.20" waitingTime="57.00" waitingCount="4" stopTime="0.00" timeLoss="106.76" rerouteNo="0" devices="vehroute_64 tripinfo_64 fcd_64" vType="DEFAULT_VEHTYPE" speedFactor="0.94" vaporized=""/>
    <tripinfo id="65" depart="2172.00" departLane="a122_0" departPos="5.10" departSpeed="0.00" departDelay="0.41" arrival="2468.00" arrivalLane="b2[1][1][1]b_0" arrivalPos="325.74" arrivalSpeed="11.03" duration="296.00" routeLength="2657.16" waitingTime="40.00" waitingCount="3" stopTime="0.00" timeLoss="76.44" rerouteNo="0" devices="vehroute_65 tripinfo_65 fcd_65" vType="DEFAULT_VEHTYPE" speedFactor="0.88" vaporized=""/>
    <tripinfo id="66" depart="2191.00" departLane="a122_0" departPos="5.10" departSpeed="0.00" departDelay="0.45" arrival="2468.00" arrivalLane="b2[1][1][1]b_1" arrivalPos="325.74" arrivalSpeed="11.53" duration="277.00" routeLength="2657.16" waitingTime="31.00" waitingCount="1" stopTime="0.00" timeLoss="63.81" rerouteNo="0" devices="vehroute_66 tripinfo_66 fcd_66" vType="DEFAULT_VEHTYPE" speedFactor="0.91" vaporized=""/>