<?xml version="1.0" encoding="UTF-8"?>

<!-- generated on 2025-03-21 17:54:31 by Eclipse SUMO sumo Version 1.21.0
<sumoConfiguration xmlns:xsi="http://www.w3.org/2001/XMLSchema-instance" xsi:noNamespaceSchemaLocation="http://sumo.dlr.de/xsd/sumoConfiguration.xsd">

    <input>
        <net-file value="${STATICPATH}/joined_lanes.net.xml"/>
        <route-files value="${SIMULATIONPATH}/generatedRoutes.rou.xml"/>
        <additional-files value="${STATICPATH}/detectors.add.xml,${STATICPATH}/joined_vtypes.add.xml,${STATICPATH}/joined_tls.add.xml"/>
    </input>

    <output>
        <fcd-output value="${SIMULATIONPATH}/fcd.xml"/>
        <queue-output value="${SIMULATIONPATH}/queue.xml"/>
        <summary-output value="${SIMULATIONPATH}/summary.xml"/>
        <tripinfo-output value="${SIMULATIONPATH}/tripinfos.xml"/>
        <vehroute-output value="${SIMULATIONPATH}/vehroute.xml"/>
        <save-state.prefix value="configs\state"/>
    </output>

    <processing>
        <ignore-junction-blocker value="1"/>
        <ignore-route-errors value="true"/>
        <time-to-teleport value="-1"/>
    </processing>

    <report>
        <log value="C:/Users/fabio/Desktop/sumo_log.txt"/>
        <no-step-log value="true"/>
    </report>

    <emissions>
        <phemlight-path value="configs\./PHEMlight/"/>
    </emissions>

    <traci_server>
        <remote-port value="60229"/>
    </traci_server>

</sumoConfiguration>
-->

<tripinfos xmlns:xsi="http://www.w3.org/2001/XMLSchema-instance" xsi:noNamespaceSchemaLocation="http://sumo.dlr.de/xsd/tripinfo_file.xsd">
    <tripinfo id="0" depart="40.00" departLane="a201_0" departPos="5.10" departSpeed="0.00" departDelay="0.29" arrival="252.00" arrivalLane="b2[1][1][1]b_0" arrivalPos="325.74" arrivalSpeed="13.54" duration="212.00" routeLength="2611.01" waitingTime="10.00" waitingCount="2" stopTime="0.00" timeLoss="33.05" rerouteNo="0" devices="vehroute_0 tripinfo_0 fcd_0" vType="DEFAULT_VEHTYPE" speedFactor="1.06" vaporized=""/>
    <tripinfo id="1" depart="44.00" departLane="a201_0" departPos="5.10" departSpeed="0.00" departDelay="0.41" arrival="265.00" arrivalLane="b2[1][1][1]b_0" arrivalPos="325.74" arrivalSpeed="11.91" duration="221.00" routeLength="2611.01" waitingTime="0.00" waitingCount="0" stopTime="0.00" timeLoss="19.27" rerouteNo="0" devices="vehroute_1 tripinfo_1 fcd_1" vType="DEFAULT_VEHTYPE" speedFactor="0.94" vaporized=""/>
    <tripinfo id="3" depart="70.00" departLane="a201_0" departPos="5.10" departSpeed="0.00" departDelay="0.91" arrival="360.00" arrivalLane="b2[1][1][1]b_0" arrivalPos="325.74" arrivalSpeed="13.81" duration="290.00" routeLength="2611.01" waitingTime="93.00" waitingCount="1" stopTime="0.00" timeLoss="115.33" rerouteNo="0" devices="vehroute_3 tripinfo_3 fcd_3" vType="DEFAULT_VEHTYPE" speedFactor="1.08" vaporized=""/>
    <tripinfo id="2" depart="44.00" departLane="a210_0" departPos="5.10" departSpeed="0.00" departDelay="0.37" arrival="392.00" arrivalLane="b15_0" arrivalPos="316.83" arrivalSpeed="13.47" duration="348.00" routeLength="2683.54" waitingTime="104.00" waitingCount="6" stopTime="0.00" timeLoss="153.46" rerouteNo="0" devices="vehroute_2 tripinfo_2 fcd_2" vType="DEFAULT_VEHTYPE" speedFactor="1.01" vaporized=""/>
    <tripinfo id="4" depart="76.00" departLane="a210_0" departPos="5.10" departSpeed="0.00" departDelay="0.60" arrival="394.00" arrivalLane="b15_0" arrivalPos="316.83" arrivalSpeed="13.07" duration="318.00" routeLength="2683.54" waitingTime="81.00" waitingCount="4" stopTime="0.00" timeLoss="126.99" rerouteNo="0" devices="vehroute_4 tripinfo_4 fcd_4" vType="DEFAULT_VEHTYPE" speedFactor="1.03" vaporized=""/>
    <tripinfo id="6" depart="151.00" departLane="a210_0" departPos="5.10" departSpeed="0.00" departDelay="0.98" arrival="395.00" arrivalLane="b15_0" arrivalPos="316.83" arrivalSpeed="13.87" duration="244.00" routeLength="2683.54" waitingTime="15.00" waitingCount="3" stopTime="0.00" timeLoss="56.58" rerouteNo="0" devices="vehroute_6 tripinfo_6 fcd_6" vType="DEFAULT_VEHTYPE" speedFactor="1.05" vaporized=""/>
    <tripinfo id="5" depart="139.00" departLane="a210_0" departPos="5.10" departSpeed="0.00" departDelay="0.67" arrival="432.00" arrivalLane="b4[1][1][1]_0" arrivalPos="171.54" arrivalSpeed="10.65" duration="293.00" routeLength="2767.14" waitingTime="29.00" waitingCount="1" stopTime="0.00" timeLoss="51.76" rerouteNo="0" devices="vehroute_5 tripinfo_5 fcd_5" vType="DEFAULT_VEHTYPE" speedFactor="0.83" vaporized=""/>
    <tripinfo id="7" depart="225.00" departLane="a201_0" departPos="5.10" departSpeed="0.00" departDelay="0.75" arrival="498.00" arrivalLane="b2[1][1][1]b_0" arrivalPos="325.74" arrivalSpeed="11.93" duration="273.00" routeLength="2611.01" waitingTime="32.00" waitingCount="2" stopTime="0.00" timeLoss="58.88" rerouteNo="0" devices="vehroute_7 tripinfo_7 fcd_7" vType="DEFAULT_VEHTYPE" speedFactor="0.89" vaporized=""/>
    <tripinfo id="8" depart="240.00" departLane="a210_0" departPos="5.10" departSpeed="0.00" departDelay="0.05" arrival="567.00" arrivalLane="b4[1][1][1]_0" arrivalPos="171.54" arrivalSpeed="12.29" duration="327.00" routeLength="2767.14" waitingTime="73.00" waitingCount="4" stopTime="0.00" timeLoss="113.05" rerouteNo="0" devices="vehroute_8 tripinfo_8 fcd_8" vType="DEFAULT_VEHTYPE" speedFactor="0.94" vaporized=""/>
    <tripinfo id="13" depart="354.00" departLane="a201_0" departPos="5.10" departSpeed="0.00" departDelay="0.90" arrival="613.00" arrivalLane="b2[1][1][1]b_1" arrivalPos="325.74" arrivalSpeed="15.47" duration="259.00" routeLength="2611.01" waitingTime="42.00" waitingCount="1" stopTime="0.00" timeLoss="90.02" rerouteNo="0" devices="vehroute_13 tripinfo_13 fcd_13" vType="DEFAULT_VEHTYPE" speedFactor="1.12" vaporized=""/>
    <tripinfo id="10" depart="260.00" departLane="a201_0" departPos="5.10" departSpeed="0.00" departDelay="0.50" arrival="614.00" arrivalLane="b2[1][1][1]b_0" arrivalPos="325.74" arrivalSpeed="14.47" duration="354.00" routeLength="2611.01" waitingTime="134.00" waitingCount="4" stopTime="0.00" timeLoss="179.62" rerouteNo="0" devices="vehroute_10 tripinfo_10 fcd_10" vType="DEFAULT_VEHTYPE" speedFactor="1.09" vaporized=""/>
    <tripinfo id="11" depart="296.00" departLane="a201_0" departPos="5.10" departSpeed="0.00" departDelay="0.18" arrival="617.00" arrivalLane="b2[1][1][1]b_0" arrivalPos="325.74" arrivalSpeed="13.88" duration="321.00" routeLength="2608.05" waitingTime="97.00" waitingCount="4" stopTime="0.00" timeLoss="136.30" rerouteNo="0" devices="vehroute_11 tripinfo_11 fcd_11" vType="DEFAULT_VEHTYPE" speedFactor="1.03" vaporized=""/>
    <tripinfo id="15" depart="364.00" departLane="a201_0" departPos="5.10" departSpeed="0.00" departDelay="0.24" arrival="621.00" arrivalLane="b2[1][1][1]b_0" arrivalPos="325.74" arrivalSpeed="12.53" duration="257.00" routeLength="2611.01" waitingTime="29.00" waitingCount="1" stopTime="0.00" timeLoss="51.70" rerouteNo="0" devices="vehroute_15 tripinfo_15 fcd_15" vType="DEFAULT_VEHTYPE" speedFactor="0.93" vaporized=""/>
    <tripinfo id="9" depart="257.00" departLane="a201_0" departPos="5.10" departSpeed="0.00" departDelay="0.48" arrival="628.00" arrivalLane="b2[1][1][1]b_0" arrivalPos="325.74" arrivalSpeed="10.68" duration="371.00" routeLength="2608.05" waitingTime="109.00" waitingCount="3" stopTime="0.00" timeLoss="149.42" rerouteNo="0" devices="vehroute_9 tripinfo_9 fcd_9" vType="DEFAULT_VEHTYPE" speedFactor="0.86" vaporized=""/>
    <tripinfo id="12" depart="306.00" departLane="a210_0" departPos="5.10" departSpeed="0.00" departDelay="0.75" arrival="637.00" arrivalLane="b15_0" arrivalPos="316.83" arrivalSpeed="13.27" duration="331.00" routeLength="2683.54" waitingTime="105.00" waitingCount="4" stopTime="0.00" timeLoss="143.50" rerouteNo="0" devices="vehroute_12 tripinfo_12 fcd_12" vType="DEFAULT_VEHTYPE" speedFactor="1.05" vaporized=""/>
    <tripinfo id="14" depart="355.00" departLane="a210_0" departPos="5.10" departSpeed="0.00" departDelay="0.78" arrival="714.00" arrivalLane="b4[1][1][1]_0" arrivalPos="171.54" arrivalSpeed="12.54" duration="359.00" routeLength="2764.18" waitingTime="118.00" waitingCount="4" stopTime="0.00" timeLoss="157.20" rerouteNo="0" devices="vehroute_14 tripinfo_14 fcd_14" vType="DEFAULT_VEHTYPE" speedFactor="0.99" vaporized=""/>
    <tripinfo id="19" depart="494.00" departLane="a201_0" departPos="5.10" departSpeed="0.00" departDelay="0.41" arrival="738.00" arrivalLane="b2[1][1][1]b_1" arrivalPos="325.74" arrivalSpeed="15.17" duration="244.00" routeLength="2608.05" waitingTime="19.00" waitingCount="2" stopTime="0.00" timeLoss="80.31" rerouteNo="0" devices="vehroute_19 tripinfo_19 fcd_19" vType="DEFAULT_VEHTYPE" speedFactor="1.16" vaporized=""/>
    <tripinfo id="17" depart="437.00" departLane="a201_0" departPos="5.10" departSpeed="0.00" departDelay="0.01" arrival="741.00" arrivalLane="b2[1][1][1]b_0" arrivalPos="325.74" arrivalSpeed="12.05" duration="304.00" routeLength="2608.05" waitingTime="67.00" waitingCount="4" stopTime="0.00" timeLoss="102.48" rerouteNo="0" devices="vehroute_17 tripinfo_17 fcd_17" vType="DEFAULT_VEHTYPE" speedFactor="0.94" vaporized=""/>
    <tripinfo id="18" depart="471.00" departLane="a201_0" departPos="5.10" departSpeed="0.00" departDelay="0.44" arrival="741.00" arrivalLane="b2[1][1][1]b_1" arrivalPos="325.74" arrivalSpeed="12.31" duration="270.00" routeLength="2611.01" waitingTime="31.00" waitingCount="2" stopTime="0.00" timeLoss="67.39" rerouteNo="0" devices="vehroute_18 tripinfo_18 fcd_18" vType="DEFAULT_VEHTYPE" speedFactor="0.94" vaporized=""/>
    <tripinfo id="16" depart="396.00" departLane="a201_0" departPos="5.10" departSpeed="0.00" departDelay="0.95" arrival="747.00" arrivalLane="b2[1][1][1]b_0" arrivalPos="325.74" arrivalSpeed="12.19" duration="351.00" routeLength="2611.01" waitingTime="100.00" waitingCount="2" stopTime="0.00" timeLoss="134.53" rerouteNo="0" devices="vehroute_16 tripinfo_16 fcd_16" vType="DEFAULT_VEHTYPE" speedFactor="0.88" vaporized=""/>
    <tripinfo id="21" depart="544.00" departLane="a201_0" departPos="5.10" departSpeed="0.00" departDelay="3.39" arrival="865.00" arrivalLane="b2[1][1][1]b_1" arrivalPos="325.74" arrivalSpeed="13.71" duration="321.00" routeLength="2611.01" waitingTime="103.00" waitingCount="3" stopTime="0.00" timeLoss="133.52" rerouteNo="0" devices="vehroute_21 tripinfo_21 fcd_21" vType="DEFAULT_VEHTYPE" speedFactor="1.01" vaporized=""/>
    <tripinfo id="20" depart="541.00" departLane="a201_0" departPos="5.10" departSpeed="0.00" departDelay="0.82" arrival="866.00" arrivalLane="b2[1][1][1]b_0" arrivalPos="325.74" arrivalSpeed="12.87" duration="325.00" routeLength="2611.01" waitingTime="104.00" waitingCount="3" stopTime="0.00" timeLoss="138.42" rerouteNo="0" devices="vehroute_20 tripinfo_20 fcd_20" vType="DEFAULT_VEHTYPE" speedFactor="1.02" vaporized=""/>
    <tripinfo id="22" depart="627.00" departLane="a201_0" departPos="5.10" departSpeed="0.00" departDelay="0.21" arrival="869.00" arrivalLane="b2[1][1][1]b_0" arrivalPos="325.74" arrivalSpeed="13.17" duration="242.00" routeLength="2611.01" waitingTime="17.00" waitingCount="2" stopTime="0.00" timeLoss="47.08" rerouteNo="0" devices="vehroute_22 tripinfo_22 fcd_22" vType="DEFAULT_VEHTYPE" speedFactor="0.97" vaporized=""/>
    <tripinfo id="23" depart="667.00" departLane="a210_0" departPos="5.10" departSpeed="0.00" departDelay="0.30" arrival="1021.00" arrivalLane="b15_0" arrivalPos="316.83" arrivalSpeed="11.34" duration="354.00" routeLength="2683.54" waitingTime="98.00" waitingCount="4" stopTime="0.00" timeLoss="134.09" rerouteNo="0" devices="vehroute_23 tripinfo_23 fcd_23" vType="DEFAULT_VEHTYPE" speedFactor="0.89" vaporized=""/>
    <tripinfo id="25" depart="741.00" departLane="a210_0" departPos="5.10" departSpeed="0.00" departDelay="0.53" arrival="1024.00" arrivalLane="b15_0" arrivalPos="316.83" arrivalSpeed="11.58" duration="283.00" routeLength="2683.54" waitingTime="20.00" waitingCount="3" stopTime="0.00" timeLoss="58.24" rerouteNo="0" devices="vehroute_25 tripinfo_25 fcd_25" vType="DEFAULT_VEHTYPE" speedFactor="0.87" vaporized=""/>
    <tripinfo id="26" depart="775.00" departLane="a201_0" departPos="5.10" departSpeed="0.00" departDelay="0.27" arrival="1146.00" arrivalLane="b2[1][1][1]b_0" arrivalPos="325.74" arrivalSpeed="11.79" duration="371.00" routeLength="2611.01" waitingTime="118.00" waitingCount="3" stopTime="0.00" timeLoss="164.02" rerouteNo="0" devices="vehroute_26 tripinfo_26 fcd_26" vType="DEFAULT_VEHTYPE" speedFactor="0.92" vaporized=""/>
    <tripinfo id="24" depart="701.00" departLane="a201_0" departPos="5.10" departSpeed="0.00" departDelay="0.36" arrival="1149.00" arrivalLane="b2[1][1][1]b_0" arrivalPos="325.74" arrivalSpeed="10.51" duration="448.00" routeLength="2611.01" waitingTime="181.00" waitingCount="4" stopTime="0.00" timeLoss="218.59" rerouteNo="0" devices="vehroute_24 tripinfo_24 fcd_24" vType="DEFAULT_VEHTYPE" speedFactor="0.83" vaporized=""/>
    <tripinfo id="30" depart="955.00" departLane="a201_0" departPos="5.10" departSpeed="0.00" departDelay="0.83" arrival="1216.00" arrivalLane="b2[1][1][1]b_0" arrivalPos="325.74" arrivalSpeed="15.73" duration="261.00" routeLength="2608.05" waitingTime="51.00" waitingCount="3" stopTime="0.00" timeLoss="100.26" rerouteNo="0" devices="vehroute_30 tripinfo_30 fcd_30" vType="DEFAULT_VEHTYPE" speedFactor="1.18" vaporized=""/>
    <tripinfo id="28" depart="917.00" departLane="a201_0" departPos="5.10" departSpeed="0.00" departDelay="0.19" arrival="1227.00" arrivalLane="b2[1][1][1]b_1" arrivalPos="325.74" arrivalSpeed="14.77" duration="310.00" routeLength="2608.05" waitingTime="86.00" waitingCount="4" stopTime="0.00" timeLoss="142.30" rerouteNo="0" devices="vehroute_28 tripinfo_28 fcd_28" vType="DEFAULT_VEHTYPE" speedFactor="1.13" vaporized=""/>
    <tripinfo id="27" depart="869.00" departLane="a201_0" departPos="5.10" departSpeed="0.00" departDelay="0.67" arrival="1230.00" arrivalLane="b2[1][1][1]b_0" arrivalPos="325.74" arrivalSpeed="12.86" duration="361.00" routeLength="2611.01" waitingTime="129.00" waitingCount="4" stopTime="0.00" timeLoss="161.38" rerouteNo="0" devices="vehroute_27 tripinfo_27 fcd_27" vType="DEFAULT_VEHTYPE" speedFactor="0.95" vaporized=""/>
    <tripinfo id="29" depart="936.00" departLane="a201_0" departPos="5.10" departSpeed="0.00" departDelay="0.67" arrival="1270.00" arrivalLane="b2[1][1][1]b_0" arrivalPos="325.74" arrivalSpeed="12.17" duration="334.00" routeLength="2611.01" waitingTime="84.00" waitingCount="4" stopTime="0.00" timeLoss="130.04" rerouteNo="0" devices="vehroute_29 tripinfo_29 fcd_29" vType="DEFAULT_VEHTYPE" speedFactor="0.93" vaporized=""/>
    <tripinfo id="32" depart="1068.00" departLane="a210_0" departPos="5.10" departSpeed="0.00" departDelay="0.47" arrival="1323.00" arrivalLane="b4[1][1][1]_0" arrivalPos="171.54" arrivalSpeed="13.16" duration="255.00" routeLength="2767.14" waitingTime="30.00" waitingCount="2" stopTime="0.00" timeLoss="55.16" rerouteNo="0" devices="vehroute_32 tripinfo_32 fcd_32" vType="DEFAULT_VEHTYPE" speedFactor="1.01" vaporized=""/>
    <tripinfo id="33" depart="1103.00" departLane="a201_0" departPos="5.10" departSpeed="0.00" departDelay="0.49" arrival="1340.00" arrivalLane="b2[1][1][1]b_0" arrivalPos="325.74" arrivalSpeed="15.86" duration="237.00" routeLength="2608.05" waitingTime="44.00" waitingCount="2" stopTime="0.00" timeLoss="74.47" rerouteNo="0" devices="vehroute_33 tripinfo_33 fcd_33" vType="DEFAULT_VEHTYPE" speedFactor="1.17" vaporized=""/>
    <tripinfo id="31" depart="1064.00" departLane="a201_0" departPos="5.10" departSpeed="0.00" departDelay="0.40" arrival="1342.00" arrivalLane="b2[1][1][1]b_0" arrivalPos="325.74" arrivalSpeed="14.93" duration="278.00" routeLength="2608.05" waitingTime="78.00" waitingCount="3" stopTime="0.00" timeLoss="114.18" rerouteNo="0" devices="vehroute_31 tripinfo_31 fcd_31" vType="DEFAULT_VEHTYPE" speedFactor="1.15" vaporized=""/>
    <tripinfo id="34" depart="1136.00" departLane="a201_0" departPos="5.10" departSpeed="0.00" departDelay="0.54" arrival="1393.00" arrivalLane="b2[1][1][1]b_0" arrivalPos="325.74" arrivalSpeed="12.75" duration="257.00" routeLength="2611.01" waitingTime="39.00" waitingCount="2" stopTime="0.00" timeLoss="66.44" rerouteNo="0" devices="vehroute_34 tripinfo_34 fcd_34" vType="DEFAULT_VEHTYPE" speedFactor="0.99" vaporized=""/>
    <tripinfo id="35" depart="1169.00" departLane="a201_0" departPos="5.10" departSpeed="0.00" departDelay="0.17" arrival="1471.00" arrivalLane="b2[1][1][1]b_0" arrivalPos="325.74" arrivalSpeed="13.27" duration="302.00" routeLength="2608.05" waitingTime="80.00" waitingCount="4" stopTime="0.00" timeLoss="116.17" rerouteNo="0" devices="vehroute_35 tripinfo_35 fcd_35" vType="DEFAULT_VEHTYPE" speedFactor="1.02" vaporized=""/>
    <tripinfo id="37" depart="1272.00" departLane="a210_0" departPos="5.10" departSpeed="0.00" departDelay="0.29" arrival="1521.00" arrivalLane="b4[1][1][1]_0" arrivalPos="171.54" arrivalSpeed="16.30" duration="249.00" routeLength="2764.18" waitingTime="44.00" waitingCount="4" stopTime="0.00" timeLoss="79.62" rerouteNo="0" devices="vehroute_37 tripinfo_37 fcd_37" vType="DEFAULT_VEHTYPE" speedFactor="1.18" vaporized=""/>
    <tripinfo id="36" depart="1259.00" departLane="a201_0" departPos="5.10" departSpeed="0.00" departDelay="0.07" arrival="1597.00" arrivalLane="b2[1][1][1]b_0" arrivalPos="325.74" arrivalSpeed="12.81" duration="338.00" routeLength="2611.01" waitingTime="107.00" waitingCount="3" stopTime="0.00" timeLoss="143.45" rerouteNo="0" devices="vehroute_36 tripinfo_36 fcd_36" vType="DEFAULT_VEHTYPE" speedFactor="0.97" vaporized=""/>
    <tripinfo id="39" depart="1354.00" departLane="a201_0" departPos="5.10" departSpeed="0.00" departDelay="0.80" arrival="1606.00" arrivalLane="b2[1][1][1]b_0" arrivalPos="325.74" arrivalSpeed="12.16" duration="252.00" routeLength="2611.01" waitingTime="18.00" waitingCount="1" stopTime="0.00" timeLoss="40.06" rerouteNo="0" devices="vehroute_39 tripinfo_39 fcd_39" vType="DEFAULT_VEHTYPE" speedFactor="0.90" vaporized=""/>
    <tripinfo id="38" depart="1324.00" departLane="a210_0" departPos="5.10" departSpeed="0.00" departDelay="0.07" arrival="1616.00" arrivalLane="b15_0" arrivalPos="316.83" arrivalSpeed="14.13" duration="292.00" routeLength="2683.54" waitingTime="77.00" waitingCount="4" stopTime="0.00" timeLoss="114.34" rerouteNo="0" devices="vehroute_38 tripinfo_38 fcd_38" vType="DEFAULT_VEHTYPE" speedFactor="1.10" vaporized=""/>
    <tripinfo id="40" depart="1375.00" departLane="a210_0" departPos="5.10" departSpeed="0.00" departDelay="0.02" arrival="1712.00" arrivalLane="b4[1][1][1]_0" arrivalPos="171.54" arrivalSpeed="13.17" duration="337.00" routeLength="2767.14" waitingTime="106.00" waitingCount="4" stopTime="0.00" timeLoss="142.74" rerouteNo="0" devices="vehroute_40 tripinfo_40 fcd_40" vType="DEFAULT_VEHTYPE" speedFactor="1.03" vaporized=""/>
    <tripinfo id="42" depart="1491.00" departLane="a201_0" departPos="5.10" departSpeed="0.00" departDelay="0.13" arrival="1713.00" arrivalLane="b2[1][1][1]b_0" arrivalPos="325.74" arrivalSpeed="13.89" duration="222.00" routeLength="2611.01" waitingTime="10.00" waitingCount="2" stopTime="0.00" timeLoss="47.30" rerouteNo="0" devices="vehroute_42 tripinfo_42 fcd_42" vType="DEFAULT_VEHTYPE" speedFactor="1.09" vaporized=""/>
    <tripinfo id="43" depart="1499.00" departLane="a201_0" departPos="5.10" departSpeed="0.00" departDelay="0.85" arrival="1719.00" arrivalLane="b2[1][1][1]b_0" arrivalPos="325.74" arrivalSpeed="13.98" duration="220.00" routeLength="2608.05" waitingTime="1.00" waitingCount="1" stopTime="0.00" timeLoss="36.76" rerouteNo="0" devices="vehroute_43 tripinfo_43 fcd_43" vType="DEFAULT_VEHTYPE" speedFactor="1.04" vaporized=""/>
    <tripinfo id="41" depart="1421.00" departLane="a201_0" departPos="5.10" departSpeed="0.00" departDelay="0.89" arrival="1721.00" arrivalLane="b2[1][1][1]b_0" arrivalPos="325.74" arrivalSpeed="12.77" duration="300.00" routeLength="2608.05" waitingTime="72.00" waitingCount="3" stopTime="0.00" timeLoss="101.66" rerouteNo="0" devices="vehroute_41 tripinfo_41 fcd_41" vType="DEFAULT_VEHTYPE" speedFactor="0.96" vaporized=""/>
    <tripinfo id="45" depart="1576.00" departLane="a210_0" departPos="5.10" departSpeed="0.00" departDelay="0.63" arrival="1868.00" arrivalLane="b4[1][1][1]_0" arrivalPos="171.54" arrivalSpeed="13.82" duration="292.00" routeLength="2764.18" waitingTime="78.00" waitingCount="3" stopTime="0.00" timeLoss="108.24" rerouteNo="0" devices="vehroute_45 tripinfo_45 fcd_45" vType="DEFAULT_VEHTYPE" speedFactor="1.09" vaporized=""/>
    <tripinfo id="44" depart="1534.00" departLane="a210_0" departPos="5.10" departSpeed="0.00" departDelay="0.10" arrival="1871.00" arrivalLane="b4[1][1][1]_0" arrivalPos="171.54" arrivalSpeed="13.93" duration="337.00" routeLength="2767.14" waitingTime="102.00" waitingCount="4" stopTime="0.00" timeLoss="145.08" rerouteNo="0" devices="vehroute_44 tripinfo_44 fcd_44" vType="DEFAULT_VEHTYPE" speedFactor="1.04" vaporized=""/>
    <tripinfo id="46" depart="1620.00" departLane="a210_0" departPos="5.10" departSpeed="0.00" departDelay="0.78" arrival="1874.00" arrivalLane="b4[1][1][1]_0" arrivalPos="171.54" arrivalSpeed="13.49" duration="254.00" routeLength="2764.18" waitingTime="26.00" waitingCount="1" stopTime="0.00" timeLoss="53.14" rerouteNo="0" devices="vehroute_46 tripinfo_46 fcd_46" vType="DEFAULT_VEHTYPE" speedFactor="1.00" vaporized=""/>
    <tripinfo id="47" depart="1636.00" departLane="a201_0" departPos="5.10" departSpeed="0.00" departDelay="0.24" arrival="1978.00" arrivalLane="b2[1][1][1]b_0" arrivalPos="325.74" arrivalSpeed="11.75" duration="342.00" routeLength="2608.05" waitingTime="94.00" waitingCount="3" stopTime="0.00" timeLoss="131.01" rerouteNo="0" devices="vehroute_47 tripinfo_47 fcd_47" vType="DEFAULT_VEHTYPE" speedFactor="0.90" vaporized=""/>
    <tripinfo id="48" depart="1655.00" departLane="a201_0" departPos="5.10" departSpeed="0.00" departDelay="0.99" arrival="1978.00" arrivalLane="b2[1][1][1]b_1" arrivalPos="325.74" arrivalSpeed="11.26" duration="323.00" routeLength="2611.01" waitingTime="74.00" waitingCount="3" stopTime="0.00" timeLoss="107.19" rerouteNo="0" devices="vehroute_48 tripinfo_48 fcd_48" vType="DEFAULT_VEHTYPE" speedFactor="0.88" vaporized=""/>
    <tripinfo id="49" depart="1662.00" departLane="a201_0" departPos="5.10" departSpeed="0.00" departDelay="0.68" arrival="1982.00" arrivalLane="b2[1][1][1]b_0" arrivalPos="325.74" arrivalSpeed="11.13" duration="320.00" routeLength="2611.01" waitingTime="66.00" waitingCount="2" stopTime="0.00" timeLoss="96.84" rerouteNo="0" devices="vehroute_49 tripinfo_49 fcd_49" vType="DEFAULT_VEHTYPE" speedFactor="0.85" vaporized=""/>
    <tripinfo id="51" depart="1733.00" departLane="a201_0" departPos="5.10" departSpeed="0.00" departDelay="0.16" arrival="2096.00" arrivalLane="b2[1][1][1]b_0" arrivalPos="325.74" arrivalSpeed="15.17" duration="363.00" routeLength="2608.05" waitingTime="124.00" waitingCount="5" stopTime="0.00" timeLoss="200.70" rerouteNo="0" devices="vehroute_51 tripinfo_51 fcd_51" vType="DEFAULT_VEHTYPE" speedFactor="1.17" vaporized=""/>
    <tripinfo id="53" depart="1760.00" departLane="a201_0" departPos="5.10" departSpeed="0.00" departDelay="2.33" arrival="2098.00" arrivalLane="b2[1][1][1]b_0" arrivalPos="325.74" arrivalSpeed="14.20" duration="338.00" routeLength="2608.05" waitingTime="100.00" waitingCount="4" stopTime="0.00" timeLoss="164.43" rerouteNo="0" devices="vehroute_53 tripinfo_53 fcd_53" vType="DEFAULT_VEHTYPE" speedFactor="1.10" vaporized=""/>
    <tripinfo id="54" depart="1834.00" departLane="a201_0" departPos="5.10" departSpeed="0.00" departDelay="0.08" arrival="2099.00" arrivalLane="b2[1][1][1]b_1" arrivalPos="325.74" arrivalSpeed="13.01" duration="265.00" routeLength="2611.01" waitingTime="44.00" waitingCount="3" stopTime="0.00" timeLoss="75.83" rerouteNo="0" devices="vehroute_54 tripinfo_54 fcd_54" vType="DEFAULT_VEHTYPE" speedFactor="1.00" vaporized=""/>
    <tripinfo id="52" depart="1757.00" departLane="a201_0" departPos="5.10" departSpeed="0.00" departDelay="0.73" arrival="2102.00" arrivalLane="b2[1][1][1]b_0" arrivalPos="325.74" arrivalSpeed="13.37" duration="345.00" routeLength="2608.05" waitingTime="117.00" waitingCount="4" stopTime="0.00" timeLoss="157.99" rerouteNo="0" devices="vehroute_52 tripinfo_52 fcd_52" vType="DEFAULT_VEHTYPE" speedFactor="1.02" vaporized=""/>
    <tripinfo id="50" depart="1714.00" departLane="a201_0" departPos="5.10" departSpeed="0.00" departDelay="0.33" arrival="2107.00" arrivalLane="b2[1][1][1]b_0" arrivalPos="325.74" arrivalSpeed="11.52" duration="393.00" routeLength="2608.05" waitingTime="130.00" waitingCount="4" stopTime="0.00" timeLoss="171.07" rerouteNo="0" devices="vehroute_50 tripinfo_50 fcd_50" vType="DEFAULT_VEHTYPE" speedFactor="0.85" vaporized=""/>
    <tripinfo id="57" depart="1898.00" departLane="a210_0" departPos="5.10" departSpeed="0.00" departDelay="0.65" arrival="2107.00" arrivalLane="b4[1][1][1]_0" arrivalPos="171.54" arrivalSpeed="15.51" duration="209.00" routeLength="2767.14" waitingTime="5.00" waitingCount="1" stopTime="0.00" timeLoss="32.80" rerouteNo="0" devices="vehroute_57 tripinfo_57 fcd_57" vType="DEFAULT_VEHTYPE" speedFactor="1.14" vaporized=""/>
    <tripinfo id="59" depart="1973.00" departLane="a201_0" departPos="5.10" departSpeed="0.00" departDelay="0.35" arrival="2224.00" arrivalLane="b2[1][1][1]b_2" arrivalPos="325.74" arrivalSpeed="12.76" duration="251.00" routeLength="2611.01" waitingTime="33.00" waitingCount="1" stopTime="0.00" timeLoss="55.06" rerouteNo="0" devices="vehroute_59 tripinfo_59 fcd_59" vType="DEFAULT_VEHTYPE" speedFactor="0.97" vaporized=""/>
    <tripinfo id="55" depart="1844.00" departLane="a201_0" departPos="5.10" departSpeed="0.00" departDelay="0.00" arrival="2225.00" arrivalLane="b2[1][1][1]b_0" arrivalPos="325.74" arrivalSpeed="13.38" duration="381.00" routeLength="2611.01" waitingTime="153.00" waitingCount="4" stopTime="0.00" timeLoss="190.16" rerouteNo="0" devices="vehroute_55 tripinfo_55 fcd_55" vType="DEFAULT_VEHTYPE" speedFactor="1.00" vaporized=""/>
    <tripinfo id="58" depart="1928.00" departLane="a201_0" departPos="5.10" departSpeed="0.00" departDelay="0.88" arrival="2225.00" arrivalLane="b2[1][1][1]b_1" arrivalPos="325.74" arrivalSpeed="13.73" duration="297.00" routeLength="2608.05" waitingTime="64.00" waitingCount="4" stopTime="0.00" timeLoss="111.21" rerouteNo="0" devices="vehroute_58 tripinfo_58 fcd_58" vType="DEFAULT_VEHTYPE" speedFactor="1.02" vaporized=""/>
    <tripinfo id="56" depart="1867.00" departLane="a201_0" departPos="5.10" departSpeed="0.00" departDelay="0.73" arrival="2230.00" arrivalLane="b2[1][1][1]b_0" arrivalPos="325.74" arrivalSpeed="11.88" duration="363.00" routeLength="2608.05" waitingTime="111.00" waitingCount="5" stopTime="0.00" timeLoss="151.92" rerouteNo="0" devices="vehroute_56 tripinfo_56 fcd_56" vType="DEFAULT_VEHTYPE" speedFactor="0.90" vaporized=""/>
    <tripinfo id="61" depart="2215.00" departLane="a201_0" departPos="5.10" departSpeed="0.00" departDelay="0.95" arrival="2449.00" arrivalLane="b2[1][1][1]b_0" arrivalPos="325.74" arrivalSpeed="15.02" duration="234.00" routeLength="2608.05" waitingTime="34.00" waitingCount="2" stopTime="0.00" timeLoss="64.47" rerouteNo="0" devices="vehroute_61 tripinfo_61 fcd_61" vType="DEFAULT_VEHTYPE" speedFactor="1.12" vaporized=""/>
    <tripinfo id="60" depart="2211.00" departLane="a210_0" departPos="5.10" departSpeed="0.00" departDelay="0.84" arrival="2457.00" arrivalLane="b4[1][1][1]_0" arrivalPos="171.54" arrivalSpeed="14.50" duration="246.00" routeLength="2767.14" waitingTime="37.00" waitingCount="2" stopTime="0.00" timeLoss="61.05" rerouteNo="0" devices="vehroute_60 tripinfo_60 fcd_60" vType="DEFAULT_VEHTYPE" speedFactor="1.08" vaporized=""/>
    <tripinfo id="62" depart="2215.00" departLane="a210_0" departPos="5.10" departSpeed="0.00" departDelay="0.21" arrival="2460.00" arrivalLane="b4[1][1][1]_0" arrivalPos="171.54" arrivalSpeed="14.02" duration="245.00" routeLength="2764.18" waitingTime="27.00" waitingCount="1" stopTime="0.00" timeLoss="47.54" rerouteNo="0" devices="vehroute_62 tripinfo_62 fcd_62" vType="DEFAULT_VEHTYPE" speedFactor="1.02" vaporized=""/>
    <tripinfo id="63" depart="2247.00" departLane="a210_0" departPos="5.10" departSpeed="0.00" departDelay="0.97" arrival="2470.00" arrivalLane="b4[1][1][1]_0" arrivalPos="171.54" arrivalSpeed="13.08" duration="223.00" routeLength="2767.14" waitingTime="0.00" waitingCount="0" stopTime="0.00" timeLoss="19.59" rerouteNo="0" devices="vehroute_63 tripinfo_63 fcd_63" vType="DEFAULT_VEHTYPE" speedFactor="0.99" vaporized=""/>
    <tripinfo id="64" depart="2252.00" departLane="a201_0" departPos="5.10" departSpeed="0.00" departDelay="3.21" arrival="2503.00" arrivalLane="b2[1][1][1]b_0" arrivalPos="325.74" arrivalSpeed="12.59" duration="251.00" routeLength="2611.01" waitingTime="27.00" waitingCount="1" stopTime="0.00" timeLoss="49.10" rerouteNo="0" devices="vehroute_64 tripinfo_64 fcd_64" vType="DEFAULT_VEHTYPE" speedFactor="0.94" vaporized=""/>
    <tripinfo id="65" depart="2293.00" departLane="a210_0" departPos="5.10" departSpeed="0.00" departDelay="0.99" arrival="2614.00" arrivalLane="b15_0" arrivalPos="316.83" arrivalSpeed="11.86" duration="321.00" routeLength="2683.54" waitingTime="64.00" waitingCount="4" stopTime="0.00" timeLoss="99.06" rerouteNo="0" devices="vehroute_65 tripinfo_65 fcd_65" vType="DEFAULT_VEHTYPE" speedFactor="0.88" vaporized=""/>
    <tripinfo id="66" depart="2296.00" departLane="a210_0" departPos="5.10" departSpeed="0.00" departDelay="2.07" arrival="2616.00" arrivalLane="b15_0" arrivalPos="316.83" arrivalSpeed="12.19" duration="320.00" routeLength="2683.54" waitingTime="57.00" waitingCount="4" stopTime="0.00" timeLoss="104.00" rerouteNo="0" devices="vehroute_66 tripinfo_66 fcd_66" vType="DEFAULT_VEHTYPE" speedFactor="0.91" vaporized=""/>