<?xml version="1.0" encoding="UTF-8"?>

<!-- generated on 2025-03-21 17:44:33 by Eclipse SUMO sumo Version 1.21.0
<sumoConfiguration xmlns:xsi="http://www.w3.org/2001/XMLSchema-instance" xsi:noNamespaceSchemaLocation="http://sumo.dlr.de/xsd/sumoConfiguration.xsd">

    <input>
        <net-file value="${STATICPATH}/joined_lanes.net.xml"/>
        <route-files value="${SIMULATIONPATH}/generatedRoutes.rou.xml"/>
        <additional-files value="${STATICPATH}/detectors.add.xml,${STATICPATH}/joined_vtypes.add.xml,${STATICPATH}/joined_tls.add.xml"/>
    </input>

    <output>
        <fcd-output value="${SIMULATIONPATH}/fcd.xml"/>
        <queue-output value="${SIMULATIONPATH}/queue.xml"/>
        <summary-output value="${SIMULATIONPATH}/summary.xml"/>
        <tripinfo-output value="${SIMULATIONPATH}/tripinfos.xml"/>
        <vehroute-output value="${SIMULATIONPATH}/vehroute.xml"/>
        <save-state.prefix value="configs\state"/>
    </output>

    <processing>
        <ignore-junction-blocker value="1"/>
        <ignore-route-errors value="true"/>
        <time-to-teleport value="-1"/>
    </processing>

    <report>
        <log value="C:/Users/fabio/Desktop/sumo_log.txt"/>
        <no-step-log value="true"/>
    </report>

    <emissions>
        <phemlight-path value="configs\./PHEMlight/"/>
    </emissions>

    <traci_server>
        <remote-port value="60140"/>
    </traci_server>

</sumoConfiguration>
-->

<tripinfos xmlns:xsi="http://www.w3.org/2001/XMLSchema-instance" xsi:noNamespaceSchemaLocation="http://sumo.dlr.de/xsd/tripinfo_file.xsd">
    <tripinfo id="0" depart="2.00" departLane="a210_0" departPos="5.10" departSpeed="0.00" departDelay="0.80" arrival="259.00" arrivalLane="ba1[1]_2" arrivalPos="0.20" arrivalSpeed="13.07" duration="257.00" routeLength="2602.48" waitingTime="34.00" waitingCount="4" stopTime="0.00" timeLoss="76.79" rerouteNo="0" devices="vehroute_0 tripinfo_0 fcd_0" vType="DEFAULT_VEHTYPE" speedFactor="1.06" vaporized=""/>
    <tripinfo id="2" depart="83.00" departLane="a210_0" departPos="5.10" departSpeed="0.00" departDelay="0.58" arrival="414.00" arrivalLane="b10_0" arrivalPos="224.30" arrivalSpeed="13.53" duration="331.00" routeLength="2830.72" waitingTime="95.00" waitingCount="4" stopTime="0.00" timeLoss="128.71" rerouteNo="0" devices="vehroute_2 tripinfo_2 fcd_2" vType="DEFAULT_VEHTYPE" speedFactor="1.01" vaporized=""/>
    <tripinfo id="1" depart="64.00" departLane="a210_0" departPos="5.10" departSpeed="0.00" departDelay="0.32" arrival="417.00" arrivalLane="b10_0" arrivalPos="224.30" arrivalSpeed="12.62" duration="353.00" routeLength="2833.68" waitingTime="94.00" waitingCount="5" stopTime="0.00" timeLoss="135.25" rerouteNo="0" devices="vehroute_1 tripinfo_1 fcd_1" vType="DEFAULT_VEHTYPE" speedFactor="0.94" vaporized=""/>
    <tripinfo id="4" depart="269.00" departLane="a210_0" departPos="5.10" departSpeed="0.00" departDelay="0.33" arrival="525.00" arrivalLane="ba1[1]_2" arrivalPos="0.20" arrivalSpeed="12.62" duration="256.00" routeLength="2602.48" waitingTime="32.00" waitingCount="3" stopTime="0.00" timeLoss="70.49" rerouteNo="0" devices="vehroute_4 tripinfo_4 fcd_4" vType="DEFAULT_VEHTYPE" speedFactor="1.03" vaporized=""/>
    <tripinfo id="3" depart="228.00" departLane="a210_0" departPos="5.10" departSpeed="0.00" departDelay="0.81" arrival="563.00" arrivalLane="b10_0" arrivalPos="224.30" arrivalSpeed="14.93" duration="335.00" routeLength="2833.68" waitingTime="109.00" waitingCount="4" stopTime="0.00" timeLoss="146.44" rerouteNo="0" devices="vehroute_3 tripinfo_3 fcd_3" vType="DEFAULT_VEHTYPE" speedFactor="1.08" vaporized=""/>
    <tripinfo id="6" depart="335.00" departLane="a210_0" departPos="5.10" departSpeed="0.00" departDelay="0.46" arrival="566.00" arrivalLane="b10_0" arrivalPos="224.30" arrivalSpeed="14.15" duration="231.00" routeLength="2833.68" waitingTime="13.00" waitingCount="2" stopTime="0.00" timeLoss="35.13" rerouteNo="0" devices="vehroute_6 tripinfo_6 fcd_6" vType="DEFAULT_VEHTYPE" speedFactor="1.05" vaporized=""/>
    <tripinfo id="8" depart="439.00" departLane="a210_0" departPos="5.10" departSpeed="0.00" departDelay="0.66" arrival="716.00" arrivalLane="b10_0" arrivalPos="224.30" arrivalSpeed="12.83" duration="277.00" routeLength="2833.68" waitingTime="34.00" waitingCount="2" stopTime="0.00" timeLoss="59.26" rerouteNo="0" devices="vehroute_8 tripinfo_8 fcd_8" vType="DEFAULT_VEHTYPE" speedFactor="0.94" vaporized=""/>
    <tripinfo id="7" depart="424.00" departLane="a210_0" departPos="5.10" departSpeed="0.00" departDelay="0.46" arrival="720.00" arrivalLane="b10_0" arrivalPos="224.30" arrivalSpeed="11.46" duration="296.00" routeLength="2833.68" waitingTime="31.00" waitingCount="2" stopTime="0.00" timeLoss="64.81" rerouteNo="0" devices="vehroute_7 tripinfo_7 fcd_7" vType="DEFAULT_VEHTYPE" speedFactor="0.89" vaporized=""/>
    <tripinfo id="9" depart="442.00" departLane="a210_0" departPos="5.10" departSpeed="0.00" departDelay="2.67" arrival="722.00" arrivalLane="b10_0" arrivalPos="224.30" arrivalSpeed="11.37" duration="280.00" routeLength="2833.68" waitingTime="19.00" waitingCount="1" stopTime="0.00" timeLoss="41.19" rerouteNo="0" devices="vehroute_9 tripinfo_9 fcd_9" vType="DEFAULT_VEHTYPE" speedFactor="0.86" vaporized=""/>
    <tripinfo id="10" depart="502.00" departLane="a210_0" departPos="5.10" departSpeed="0.00" departDelay="0.89" arrival="768.00" arrivalLane="ba1[1]_2" arrivalPos="0.20" arrivalSpeed="13.33" duration="266.00" routeLength="2602.48" waitingTime="50.00" waitingCount="5" stopTime="0.00" timeLoss="90.59" rerouteNo="0" devices="vehroute_10 tripinfo_10 fcd_10" vType="DEFAULT_VEHTYPE" speedFactor="1.09" vaporized=""/>
    <tripinfo id="11" depart="509.00" departLane="a210_0" departPos="5.10" departSpeed="0.00" departDelay="0.40" arrival="771.00" arrivalLane="ba1[1]_2" arrivalPos="0.20" arrivalSpeed="12.37" duration="262.00" routeLength="2602.48" waitingTime="32.00" waitingCount="3" stopTime="0.00" timeLoss="75.56" rerouteNo="0" devices="vehroute_11 tripinfo_11 fcd_11" vType="DEFAULT_VEHTYPE" speedFactor="1.03" vaporized=""/>
    <tripinfo id="5" depart="288.00" departLane="a37_0" departPos="5.10" departSpeed="0.00" departDelay="0.12" arrival="862.00" arrivalLane="b3[1]b_0" arrivalPos="239.77" arrivalSpeed="10.41" duration="574.00" routeLength="3275.50" waitingTime="222.00" waitingCount="8" stopTime="0.00" timeLoss="284.68" rerouteNo="0" devices="vehroute_5 tripinfo_5 fcd_5" vType="DEFAULT_VEHTYPE" speedFactor="0.83" vaporized=""/>
    <tripinfo id="12" depart="554.00" departLane="a210_0" departPos="5.10" departSpeed="0.00" departDelay="0.35" arrival="892.00" arrivalLane="ba1[1]_2" arrivalPos="0.20" arrivalSpeed="11.92" duration="338.00" routeLength="2602.48" waitingTime="110.00" waitingCount="5" stopTime="0.00" timeLoss="156.11" rerouteNo="0" devices="vehroute_12 tripinfo_12 fcd_12" vType="DEFAULT_VEHTYPE" speedFactor="1.05" vaporized=""/>
    <tripinfo id="13" depart="574.00" departLane="a210_0" departPos="5.10" departSpeed="0.00" departDelay="0.51" arrival="895.00" arrivalLane="ba1[1]_2" arrivalPos="0.20" arrivalSpeed="10.25" duration="321.00" routeLength="2602.48" waitingTime="100.00" waitingCount="4" stopTime="0.00" timeLoss="150.90" rerouteNo="0" devices="vehroute_13 tripinfo_13 fcd_13" vType="DEFAULT_VEHTYPE" speedFactor="1.12" vaporized=""/>
    <tripinfo id="14" depart="583.00" departLane="a210_0" departPos="5.10" departSpeed="0.00" departDelay="0.65" arrival="897.00" arrivalLane="ba1[1]_2" arrivalPos="0.20" arrivalSpeed="11.09" duration="314.00" routeLength="2602.48" waitingTime="68.00" waitingCount="4" stopTime="0.00" timeLoss="121.35" rerouteNo="0" devices="vehroute_14 tripinfo_14 fcd_14" vType="DEFAULT_VEHTYPE" speedFactor="0.99" vaporized=""/>
    <tripinfo id="18" depart="640.00" departLane="a210_0" departPos="5.10" departSpeed="0.00" departDelay="0.04" arrival="899.00" arrivalLane="ba1[1]_2" arrivalPos="0.20" arrivalSpeed="11.58" duration="259.00" routeLength="2602.48" waitingTime="13.00" waitingCount="3" stopTime="0.00" timeLoss="55.11" rerouteNo="0" devices="vehroute_18 tripinfo_18 fcd_18" vType="DEFAULT_VEHTYPE" speedFactor="0.94" vaporized=""/>
    <tripinfo id="17" depart="637.00" departLane="a210_0" departPos="5.10" departSpeed="0.00" departDelay="0.21" arrival="968.00" arrivalLane="b10_0" arrivalPos="224.30" arrivalSpeed="12.24" duration="331.00" routeLength="2830.72" waitingTime="83.00" waitingCount="3" stopTime="0.00" timeLoss="114.04" rerouteNo="0" devices="vehroute_17 tripinfo_17 fcd_17" vType="DEFAULT_VEHTYPE" speedFactor="0.94" vaporized=""/>
    <tripinfo id="16" depart="626.00" departLane="a210_0" departPos="5.10" departSpeed="0.00" departDelay="0.49" arrival="971.00" arrivalLane="b10_0" arrivalPos="224.30" arrivalSpeed="11.27" duration="345.00" routeLength="2833.68" waitingTime="72.00" waitingCount="3" stopTime="0.00" timeLoss="112.30" rerouteNo="0" devices="vehroute_16 tripinfo_16 fcd_16" vType="DEFAULT_VEHTYPE" speedFactor="0.88" vaporized=""/>
    <tripinfo id="15" depart="615.00" departLane="a37_0" departPos="5.10" departSpeed="0.00" departDelay="0.61" arrival="984.00" arrivalLane="b3[1]b_0" arrivalPos="239.77" arrivalSpeed="12.60" duration="369.00" routeLength="3275.50" waitingTime="49.00" waitingCount="6" stopTime="0.00" timeLoss="109.15" rerouteNo="0" devices="vehroute_15 tripinfo_15 fcd_15" vType="DEFAULT_VEHTYPE" speedFactor="0.93" vaporized=""/>
    <tripinfo id="22" depart="795.00" departLane="a210_0" departPos="5.10" departSpeed="0.00" departDelay="0.11" arrival="1093.00" arrivalLane="b10_0" arrivalPos="224.30" arrivalSpeed="13.40" duration="298.00" routeLength="2833.68" waitingTime="64.00" waitingCount="2" stopTime="0.00" timeLoss="88.52" rerouteNo="0" devices="vehroute_22 tripinfo_22 fcd_22" vType="DEFAULT_VEHTYPE" speedFactor="0.97" vaporized=""/>
    <tripinfo id="19" depart="691.00" departLane="a37_0" departPos="5.10" departSpeed="0.00" departDelay="0.58" arrival="1103.00" arrivalLane="b3[1]b_0" arrivalPos="239.77" arrivalSpeed="15.57" duration="412.00" routeLength="3275.50" waitingTime="140.00" waitingCount="6" stopTime="0.00" timeLoss="204.92" rerouteNo="0" devices="vehroute_19 tripinfo_19 fcd_19" vType="DEFAULT_VEHTYPE" speedFactor="1.16" vaporized=""/>
    <tripinfo id="23" depart="806.00" departLane="a210_0" departPos="5.10" departSpeed="0.00" departDelay="0.99" arrival="1151.00" arrivalLane="ba1[1]_2" arrivalPos="0.20" arrivalSpeed="10.57" duration="345.00" routeLength="2602.48" waitingTime="82.00" waitingCount="5" stopTime="0.00" timeLoss="129.73" rerouteNo="0" devices="vehroute_23 tripinfo_23 fcd_23" vType="DEFAULT_VEHTYPE" speedFactor="0.89" vaporized=""/>
    <tripinfo id="26" depart="838.00" departLane="a210_0" departPos="5.10" departSpeed="0.00" departDelay="0.82" arrival="1152.00" arrivalLane="ba1[1]_2" arrivalPos="0.20" arrivalSpeed="11.39" duration="314.00" routeLength="2602.48" waitingTime="61.00" waitingCount="4" stopTime="0.00" timeLoss="106.52" rerouteNo="0" devices="vehroute_26 tripinfo_26 fcd_26" vType="DEFAULT_VEHTYPE" speedFactor="0.92" vaporized=""/>
    <tripinfo id="27" depart="841.00" departLane="a210_0" departPos="5.10" departSpeed="0.00" departDelay="3.48" arrival="1156.00" arrivalLane="ba1[1]_2" arrivalPos="0.20" arrivalSpeed="11.21" duration="315.00" routeLength="2602.48" waitingTime="55.00" waitingCount="3" stopTime="0.00" timeLoss="112.85" rerouteNo="0" devices="vehroute_27 tripinfo_27 fcd_27" vType="DEFAULT_VEHTYPE" speedFactor="0.95" vaporized=""/>
    <tripinfo id="28" depart="861.00" departLane="a210_0" departPos="5.10" departSpeed="0.00" departDelay="0.40" arrival="1217.00" arrivalLane="b10_0" arrivalPos="224.30" arrivalSpeed="15.30" duration="356.00" routeLength="2833.68" waitingTime="144.00" waitingCount="3" stopTime="0.00" timeLoss="175.20" rerouteNo="0" devices="vehroute_28 tripinfo_28 fcd_28" vType="DEFAULT_VEHTYPE" speedFactor="1.13" vaporized=""/>
    <tripinfo id="25" depart="825.00" departLane="a210_0" departPos="5.10" departSpeed="0.00" departDelay="0.98" arrival="1224.00" arrivalLane="b10_0" arrivalPos="224.30" arrivalSpeed="11.13" duration="399.00" routeLength="2833.68" waitingTime="129.00" waitingCount="4" stopTime="0.00" timeLoss="164.28" rerouteNo="0" devices="vehroute_25 tripinfo_25 fcd_25" vType="DEFAULT_VEHTYPE" speedFactor="0.87" vaporized=""/>
    <tripinfo id="24" depart="819.00" departLane="a210_0" departPos="5.10" departSpeed="0.00" departDelay="0.51" arrival="1227.00" arrivalLane="b10_0" arrivalPos="224.30" arrivalSpeed="10.32" duration="408.00" routeLength="2830.72" waitingTime="124.00" waitingCount="4" stopTime="0.00" timeLoss="160.52" rerouteNo="0" devices="vehroute_24 tripinfo_24 fcd_24" vType="DEFAULT_VEHTYPE" speedFactor="0.83" vaporized=""/>
    <tripinfo id="29" depart="926.00" departLane="a210_0" departPos="5.10" departSpeed="0.00" departDelay="0.63" arrival="1229.00" arrivalLane="b10_0" arrivalPos="224.30" arrivalSpeed="12.92" duration="303.00" routeLength="2833.68" waitingTime="42.00" waitingCount="3" stopTime="0.00" timeLoss="83.11" rerouteNo="0" devices="vehroute_29 tripinfo_29 fcd_29" vType="DEFAULT_VEHTYPE" speedFactor="0.93" vaporized=""/>
    <tripinfo id="20" depart="763.00" departLane="a37_0" departPos="5.10" departSpeed="0.00" departDelay="0.68" arrival="1233.00" arrivalLane="b3[1]b_0" arrivalPos="239.77" arrivalSpeed="13.86" duration="470.00" routeLength="3275.50" waitingTime="165.00" waitingCount="8" stopTime="0.00" timeLoss="233.97" rerouteNo="0" devices="vehroute_20 tripinfo_20 fcd_20" vType="DEFAULT_VEHTYPE" speedFactor="1.02" vaporized=""/>
    <tripinfo id="21" depart="766.00" departLane="a37_0" departPos="5.10" departSpeed="0.00" departDelay="2.86" arrival="1233.00" arrivalLane="b3[1]b_1" arrivalPos="239.77" arrivalSpeed="13.83" duration="467.00" routeLength="3270.25" waitingTime="157.00" waitingCount="8" stopTime="0.00" timeLoss="228.28" rerouteNo="0" devices="vehroute_21 tripinfo_21 fcd_21" vType="DEFAULT_VEHTYPE" speedFactor="1.01" vaporized=""/>
    <tripinfo id="30" depart="956.00" departLane="a210_0" departPos="5.10" departSpeed="0.00" departDelay="0.61" arrival="1256.00" arrivalLane="ba1[1]_2" arrivalPos="0.20" arrivalSpeed="10.74" duration="300.00" routeLength="2602.48" waitingTime="87.00" waitingCount="5" stopTime="0.00" timeLoss="138.63" rerouteNo="0" devices="vehroute_30 tripinfo_30 fcd_30" vType="DEFAULT_VEHTYPE" speedFactor="1.18" vaporized=""/>
    <tripinfo id="31" depart="1000.00" departLane="a210_0" departPos="5.10" departSpeed="0.00" departDelay="0.09" arrival="1343.00" arrivalLane="b10_0" arrivalPos="224.30" arrivalSpeed="15.31" duration="343.00" routeLength="2833.68" waitingTime="129.00" waitingCount="4" stopTime="0.00" timeLoss="165.48" rerouteNo="0" devices="vehroute_31 tripinfo_31 fcd_31" vType="DEFAULT_VEHTYPE" speedFactor="1.15" vaporized=""/>
    <tripinfo id="32" depart="1007.00" departLane="a210_0" departPos="5.10" departSpeed="0.00" departDelay="0.07" arrival="1347.00" arrivalLane="b10_0" arrivalPos="224.30" arrivalSpeed="13.26" duration="340.00" routeLength="2830.72" waitingTime="105.00" waitingCount="3" stopTime="0.00" timeLoss="136.53" rerouteNo="0" devices="vehroute_32 tripinfo_32 fcd_32" vType="DEFAULT_VEHTYPE" speedFactor="1.01" vaporized=""/>
    <tripinfo id="33" depart="1071.00" departLane="a210_0" departPos="5.10" departSpeed="0.00" departDelay="0.52" arrival="1380.00" arrivalLane="ba1[1]_2" arrivalPos="0.20" arrivalSpeed="10.82" duration="309.00" routeLength="2602.48" waitingTime="103.00" waitingCount="5" stopTime="0.00" timeLoss="146.49" rerouteNo="0" devices="vehroute_33 tripinfo_33 fcd_33" vType="DEFAULT_VEHTYPE" speedFactor="1.17" vaporized=""/>
    <tripinfo id="38" depart="1247.00" departLane="a210_0" departPos="5.10" departSpeed="0.00" departDelay="0.24" arrival="1477.00" arrivalLane="b10_0" arrivalPos="224.30" arrivalSpeed="14.49" duration="230.00" routeLength="2833.68" waitingTime="18.00" waitingCount="2" stopTime="0.00" timeLoss="44.76" rerouteNo="0" devices="vehroute_38 tripinfo_38 fcd_38" vType="DEFAULT_VEHTYPE" speedFactor="1.10" vaporized=""/>
    <tripinfo id="35" depart="1144.00" departLane="a210_0" departPos="5.10" departSpeed="0.00" departDelay="0.89" arrival="1481.00" arrivalLane="b10_0" arrivalPos="224.30" arrivalSpeed="13.01" duration="337.00" routeLength="2833.68" waitingTime="100.00" waitingCount="3" stopTime="0.00" timeLoss="135.89" rerouteNo="0" devices="vehroute_35 tripinfo_35 fcd_35" vType="DEFAULT_VEHTYPE" speedFactor="1.02" vaporized=""/>
    <tripinfo id="37" depart="1231.00" departLane="a210_0" departPos="5.10" departSpeed="0.00" departDelay="0.97" arrival="1482.00" arrivalLane="b10_0" arrivalPos="224.30" arrivalSpeed="15.33" duration="251.00" routeLength="2830.72" waitingTime="21.00" waitingCount="4" stopTime="0.00" timeLoss="77.78" rerouteNo="0" devices="vehroute_37 tripinfo_37 fcd_37" vType="DEFAULT_VEHTYPE" speedFactor="1.18" vaporized=""/>
    <tripinfo id="34" depart="1130.00" departLane="a37_0" departPos="5.10" departSpeed="0.00" departDelay="0.58" arrival="1494.00" arrivalLane="b3[1]b_0" arrivalPos="239.77" arrivalSpeed="13.33" duration="364.00" routeLength="3275.50" waitingTime="62.00" waitingCount="5" stopTime="0.00" timeLoss="121.68" rerouteNo="0" devices="vehroute_34 tripinfo_34 fcd_34" vType="DEFAULT_VEHTYPE" speedFactor="0.99" vaporized=""/>
    <tripinfo id="36" depart="1162.00" departLane="a37_0" departPos="5.10" departSpeed="0.00" departDelay="0.90" arrival="1494.00" arrivalLane="b3[1]b_1" arrivalPos="239.77" arrivalSpeed="13.11" duration="332.00" routeLength="3270.25" waitingTime="40.00" waitingCount="3" stopTime="0.00" timeLoss="84.91" rerouteNo="0" devices="vehroute_36 tripinfo_36 fcd_36" vType="DEFAULT_VEHTYPE" speedFactor="0.97" vaporized=""/>
    <tripinfo id="40" depart="1314.00" departLane="a210_0" departPos="5.10" departSpeed="0.00" departDelay="0.73" arrival="1645.00" arrivalLane="b10_0" arrivalPos="224.30" arrivalSpeed="13.41" duration="331.00" routeLength="2833.68" waitingTime="98.00" waitingCount="3" stopTime="0.00" timeLoss="132.35" rerouteNo="0" devices="vehroute_40 tripinfo_40 fcd_40" vType="DEFAULT_VEHTYPE" speedFactor="1.03" vaporized=""/>
    <tripinfo id="41" depart="1372.00" departLane="a210_0" departPos="5.10" departSpeed="0.00" departDelay="0.73" arrival="1649.00" arrivalLane="b10_0" arrivalPos="224.30" arrivalSpeed="13.10" duration="277.00" routeLength="2833.68" waitingTime="28.00" waitingCount="2" stopTime="0.00" timeLoss="62.86" rerouteNo="0" devices="vehroute_41 tripinfo_41 fcd_41" vType="DEFAULT_VEHTYPE" speedFactor="0.96" vaporized=""/>
    <tripinfo id="39" depart="1276.00" departLane="a210_0" departPos="5.10" departSpeed="0.00" departDelay="0.75" arrival="1651.00" arrivalLane="b10_0" arrivalPos="224.30" arrivalSpeed="11.96" duration="375.00" routeLength="2830.72" waitingTime="112.00" waitingCount="4" stopTime="0.00" timeLoss="148.46" rerouteNo="0" devices="vehroute_39 tripinfo_39 fcd_39" vType="DEFAULT_VEHTYPE" speedFactor="0.90" vaporized=""/>
    <tripinfo id="43" depart="1408.00" departLane="a210_0" departPos="5.10" departSpeed="0.00" departDelay="0.25" arrival="1653.00" arrivalLane="b10_0" arrivalPos="224.30" arrivalSpeed="13.67" duration="245.00" routeLength="2833.68" waitingTime="26.00" waitingCount="1" stopTime="0.00" timeLoss="47.81" rerouteNo="0" devices="vehroute_43 tripinfo_43 fcd_43" vType="DEFAULT_VEHTYPE" speedFactor="1.04" vaporized=""/>
    <tripinfo id="42" depart="1392.00" departLane="a37_0" departPos="5.10" departSpeed="0.00" departDelay="0.74" arrival="1675.00" arrivalLane="b3[1]b_0" arrivalPos="239.77" arrivalSpeed="14.62" duration="283.00" routeLength="3275.50" waitingTime="17.00" waitingCount="3" stopTime="0.00" timeLoss="62.78" rerouteNo="0" devices="vehroute_42 tripinfo_42 fcd_42" vType="DEFAULT_VEHTYPE" speedFactor="1.09" vaporized=""/>
    <tripinfo id="44" depart="1430.00" departLane="a210_0" departPos="5.10" departSpeed="0.00" departDelay="0.16" arrival="1774.00" arrivalLane="ba1[1]_2" arrivalPos="0.20" arrivalSpeed="12.36" duration="344.00" routeLength="2602.48" waitingTime="116.00" waitingCount="5" stopTime="0.00" timeLoss="160.54" rerouteNo="0" devices="vehroute_44 tripinfo_44 fcd_44" vType="DEFAULT_VEHTYPE" speedFactor="1.04" vaporized=""/>
    <tripinfo id="45" depart="1458.00" departLane="a210_0" departPos="5.10" departSpeed="0.00" departDelay="0.73" arrival="1791.00" arrivalLane="b10_0" arrivalPos="224.30" arrivalSpeed="14.09" duration="333.00" routeLength="2833.68" waitingTime="107.00" waitingCount="4" stopTime="0.00" timeLoss="144.59" rerouteNo="0" devices="vehroute_45 tripinfo_45 fcd_45" vType="DEFAULT_VEHTYPE" speedFactor="1.09" vaporized=""/>
    <tripinfo id="46" depart="1550.00" departLane="a210_0" departPos="5.10" departSpeed="0.00" departDelay="0.79" arrival="1877.00" arrivalLane="ba1[1]_2" arrivalPos="0.20" arrivalSpeed="11.94" duration="327.00" routeLength="2602.48" waitingTime="89.00" waitingCount="6" stopTime="0.00" timeLoss="135.98" rerouteNo="0" devices="vehroute_46 tripinfo_46 fcd_46" vType="DEFAULT_VEHTYPE" speedFactor="1.00" vaporized=""/>
    <tripinfo id="47" depart="1722.00" departLane="a210_0" departPos="5.10" departSpeed="0.00" departDelay="0.36" arrival="1983.00" arrivalLane="b10_0" arrivalPos="224.30" arrivalSpeed="12.37" duration="261.00" routeLength="2833.68" waitingTime="13.00" waitingCount="1" stopTime="0.00" timeLoss="33.43" rerouteNo="0" devices="vehroute_47 tripinfo_47 fcd_47" vType="DEFAULT_VEHTYPE" speedFactor="0.90" vaporized=""/>
    <tripinfo id="48" depart="1726.00" departLane="a210_0" departPos="5.10" departSpeed="0.00" departDelay="0.32" arrival="2007.00" arrivalLane="ba1[1]_2" arrivalPos="0.20" arrivalSpeed="9.66" duration="281.00" routeLength="2602.48" waitingTime="27.00" waitingCount="4" stopTime="0.00" timeLoss="63.29" rerouteNo="0" devices="vehroute_48 tripinfo_48 fcd_48" vType="DEFAULT_VEHTYPE" speedFactor="0.88" vaporized=""/>
    <tripinfo id="51" depart="1805.00" departLane="a210_0" departPos="5.10" departSpeed="0.00" departDelay="0.85" arrival="2105.00" arrivalLane="b10_0" arrivalPos="224.30" arrivalSpeed="15.24" duration="300.00" routeLength="2833.68" waitingTime="85.00" waitingCount="4" stopTime="0.00" timeLoss="124.49" rerouteNo="0" devices="vehroute_51 tripinfo_51 fcd_51" vType="DEFAULT_VEHTYPE" speedFactor="1.17" vaporized=""/>
    <tripinfo id="53" depart="1825.00" departLane="a210_0" departPos="5.10" departSpeed="0.00" departDelay="0.38" arrival="2108.00" arrivalLane="b10_0" arrivalPos="224.30" arrivalSpeed="14.04" duration="283.00" routeLength="2830.72" waitingTime="62.00" waitingCount="3" stopTime="0.00" timeLoss="96.03" rerouteNo="0" devices="vehroute_53 tripinfo_53 fcd_53" vType="DEFAULT_VEHTYPE" speedFactor="1.10" vaporized=""/>
    <tripinfo id="50" depart="1745.00" departLane="a210_0" departPos="5.10" departSpeed="0.00" departDelay="0.43" arrival="2114.00" arrivalLane="b10_0" arrivalPos="224.30" arrivalSpeed="11.06" duration="369.00" routeLength="2833.68" waitingTime="101.00" waitingCount="3" stopTime="0.00" timeLoss="130.01" rerouteNo="0" devices="vehroute_50 tripinfo_50 fcd_50" vType="DEFAULT_VEHTYPE" speedFactor="0.85" vaporized=""/>
    <tripinfo id="49" depart="1734.00" departLane="a210_0" departPos="5.10" departSpeed="0.00" departDelay="0.11" arrival="2131.00" arrivalLane="ba1[1]_2" arrivalPos="0.20" arrivalSpeed="10.49" duration="397.00" routeLength="2602.48" waitingTime="126.00" waitingCount="6" stopTime="0.00" timeLoss="171.93" rerouteNo="0" devices="vehroute_49 tripinfo_49 fcd_49" vType="DEFAULT_VEHTYPE" speedFactor="0.85" vaporized=""/>
    <tripinfo id="52" depart="1822.00" departLane="a210_0" departPos="5.10" departSpeed="0.00" departDelay="0.01" arrival="2134.00" arrivalLane="ba1[1]_2" arrivalPos="0.20" arrivalSpeed="12.02" duration="312.00" routeLength="2602.48" waitingTime="69.00" waitingCount="3" stopTime="0.00" timeLoss="124.40" rerouteNo="0" devices="vehroute_52 tripinfo_52 fcd_52" vType="DEFAULT_VEHTYPE" speedFactor="1.02" vaporized=""/>
    <tripinfo id="54" depart="1836.00" departLane="a210_0" departPos="5.10" departSpeed="0.00" departDelay="0.99" arrival="2137.00" arrivalLane="ba1[1]_2" arrivalPos="0.20" arrivalSpeed="12.26" duration="301.00" routeLength="2602.48" waitingTime="51.00" waitingCount="3" stopTime="0.00" timeLoss="110.44" rerouteNo="0" devices="vehroute_54 tripinfo_54 fcd_54" vType="DEFAULT_VEHTYPE" speedFactor="1.00" vaporized=""/>
    <tripinfo id="57" depart="1944.00" departLane="a210_0" departPos="5.10" departSpeed="0.00" departDelay="0.96" arrival="2244.00" arrivalLane="b10_0" arrivalPos="224.30" arrivalSpeed="14.64" duration="300.00" routeLength="2833.68" waitingTime="86.00" waitingCount="4" stopTime="0.00" timeLoss="121.30" rerouteNo="0" devices="vehroute_57 tripinfo_57 fcd_57" vType="DEFAULT_VEHTYPE" speedFactor="1.14" vaporized=""/>
    <tripinfo id="55" depart="1892.00" departLane="a210_0" departPos="5.10" departSpeed="0.00" departDelay="0.18" arrival="2248.00" arrivalLane="ba1[1]_2" arrivalPos="0.20" arrivalSpeed="11.56" duration="356.00" routeLength="2602.48" waitingTime="114.00" waitingCount="6" stopTime="0.00" timeLoss="164.07" rerouteNo="0" devices="vehroute_55 tripinfo_55 fcd_55" vType="DEFAULT_VEHTYPE" speedFactor="1.00" vaporized=""/>
    <tripinfo id="56" depart="1917.00" departLane="a210_0" departPos="5.10" departSpeed="0.00" departDelay="0.07" arrival="2251.00" arrivalLane="ba1[1]_2" arrivalPos="0.20" arrivalSpeed="11.16" duration="334.00" routeLength="2602.48" waitingTime="84.00" waitingCount="3" stopTime="0.00" timeLoss="121.23" rerouteNo="0" devices="vehroute_56 tripinfo_56 fcd_56" vType="DEFAULT_VEHTYPE" speedFactor="0.90" vaporized=""/>
    <tripinfo id="61" depart="2069.00" departLane="a210_0" departPos="5.10" departSpeed="0.00" departDelay="0.49" arrival="2400.00" arrivalLane="b10_0" arrivalPos="224.30" arrivalSpeed="15.44" duration="331.00" routeLength="2833.68" waitingTime="117.00" waitingCount="3" stopTime="0.00" timeLoss="147.83" rerouteNo="0" devices="vehroute_61 tripinfo_61 fcd_61" vType="DEFAULT_VEHTYPE" speedFactor="1.12" vaporized=""/>
    <tripinfo id="60" depart="2063.00" departLane="a210_0" departPos="5.10" departSpeed="0.00" departDelay="0.05" arrival="2402.00" arrivalLane="b10_0" arrivalPos="224.30" arrivalSpeed="14.69" duration="339.00" routeLength="2830.72" waitingTime="115.00" waitingCount="4" stopTime="0.00" timeLoss="150.34" rerouteNo="0" devices="vehroute_60 tripinfo_60 fcd_60" vType="DEFAULT_VEHTYPE" speedFactor="1.08" vaporized=""/>
    <tripinfo id="62" depart="2072.00" departLane="a210_0" departPos="5.10" departSpeed="0.00" departDelay="1.41" arrival="2405.00" arrivalLane="b10_0" arrivalPos="224.30" arrivalSpeed="12.98" duration="333.00" routeLength="2833.68" waitingTime="101.00" waitingCount="3" stopTime="0.00" timeLoss="131.66" rerouteNo="0" devices="vehroute_62 tripinfo_62 fcd_62" vType="DEFAULT_VEHTYPE" speedFactor="1.02" vaporized=""/>
    <tripinfo id="63" depart="2140.00" departLane="a210_0" departPos="5.10" departSpeed="0.00" departDelay="0.55" arrival="2407.00" arrivalLane="b10_0" arrivalPos="224.30" arrivalSpeed="12.84" duration="267.00" routeLength="2833.68" waitingTime="29.00" waitingCount="2" stopTime="0.00" timeLoss="60.02" rerouteNo="0" devices="vehroute_63 tripinfo_63 fcd_63" vType="DEFAULT_VEHTYPE" speedFactor="0.99" vaporized=""/>
    <tripinfo id="64" depart="2170.00" departLane="a210_0" departPos="5.10" departSpeed="0.00" departDelay="0.81" arrival="2410.00" arrivalLane="b10_0" arrivalPos="224.30" arrivalSpeed="11.76" duration="240.00" routeLength="2833.68" waitingTime="3.00" waitingCount="1" stopTime="0.00" timeLoss="21.89" rerouteNo="0" devices="vehroute_64 tripinfo_64 fcd_64" vType="DEFAULT_VEHTYPE" speedFactor="0.94" vaporized=""/>
    <tripinfo id="58" depart="2032.00" departLane="a37_0" departPos="5.10" departSpeed="0.00" departDelay="0.01" arrival="2424.00" arrivalLane="b3[1]b_0" arrivalPos="239.77" arrivalSpeed="13.65" duration="392.00" routeLength="3275.50" waitingTime="100.00" waitingCount="6" stopTime="0.00" timeLoss="156.97" rerouteNo="0" devices="vehroute_58 tripinfo_58 fcd_58" vType="DEFAULT_VEHTYPE" speedFactor="1.02" vaporized=""/>
    <tripinfo id="59" depart="2040.00" departLane="a37_0" departPos="5.10" departSpeed="0.00" departDelay="0.33" arrival="2432.00" arrivalLane="b3[1]b_0" arrivalPos="239.77" arrivalSpeed="12.51" duration="392.00" routeLength="3275.50" waitingTime="86.00" waitingCount="4" stopTime="0.00" timeLoss="143.92" rerouteNo="0" devices="vehroute_59 tripinfo_59 fcd_59" vType="DEFAULT_VEHTYPE" speedFactor="0.97" vaporized=""/>
    <tripinfo id="67" depart="2225.00" departLane="a210_0" departPos="5.10" departSpeed="0.00" departDelay="0.01" arrival="2497.00" arrivalLane="ba1[1]_2" arrivalPos="0.20" arrivalSpeed="10.35" duration="272.00" routeLength="2602.48" waitingTime="25.00" waitingCount="3" stopTime="0.00" timeLoss="62.97" rerouteNo="0" devices="vehroute_67 tripinfo_67 fcd_67" vType="DEFAULT_VEHTYPE" speedFactor="0.91" vaporized=""/>
    <tripinfo id="66" depart="2191.00" departLane="a210_0" departPos="5.10" departSpeed="0.00" departDelay="0.45" arrival="2574.00" arrivalLane="b10_0" arrivalPos="224.30" arrivalSpeed="12.18" duration="383.00" routeLength="2833.68" waitingTime="120.00" waitingCount="4" stopTime="0.00" timeLoss="157.77" rerouteNo="0" devices="vehroute_66 tripinfo_66 fcd_66" vType="DEFAULT_VEHTYPE" speedFactor="0.91" vaporized=""/>
    <tripinfo id="68" depart="2231.00" departLane="a210_0" departPos="5.10" departSpeed="0.00" departDelay="0.81" arrival="2576.00" arrivalLane="b10_0" arrivalPos="224.30" arrivalSpeed="13.36" duration="345.00" routeLength="2833.68" waitingTime="98.00" waitingCount="3" stopTime="0.00" timeLoss="148.15" rerouteNo="0" devices="vehroute_68 tripinfo_68 fcd_68" vType="DEFAULT_VEHTYPE" speedFactor="1.04" vaporized=""/>