<?xml version="1.0" encoding="UTF-8"?>

<!-- generated on 2025-03-21 17:46:33 by Eclipse SUMO sumo Version 1.21.0
<sumoConfiguration xmlns:xsi="http://www.w3.org/2001/XMLSchema-instance" xsi:noNamespaceSchemaLocation="http://sumo.dlr.de/xsd/sumoConfiguration.xsd">

    <input>
        <net-file value="${STATICPATH}/joined_lanes.net.xml"/>
        <route-files value="${SIMULATIONPATH}/generatedRoutes.rou.xml"/>
        <additional-files value="${STATICPATH}/detectors.add.xml,${STATICPATH}/joined_vtypes.add.xml,${STATICPATH}/joined_tls.add.xml"/>
    </input>

    <output>
        <fcd-output value="${SIMULATIONPATH}/fcd.xml"/>
        <queue-output value="${SIMULATIONPATH}/queue.xml"/>
        <summary-output value="${SIMULATIONPATH}/summary.xml"/>
        <tripinfo-output value="${SIMULATIONPATH}/tripinfos.xml"/>
        <vehroute-output value="${SIMULATIONPATH}/vehroute.xml"/>
        <save-state.prefix value="configs\state"/>
    </output>

    <processing>
        <ignore-junction-blocker value="1"/>
        <ignore-route-errors value="true"/>
        <time-to-teleport value="-1"/>
    </processing>

    <report>
        <log value="C:/Users/fabio/Desktop/sumo_log.txt"/>
        <no-step-log value="true"/>
    </report>

    <emissions>
        <phemlight-path value="configs\./PHEMlight/"/>
    </emissions>

    <traci_server>
        <remote-port value="60152"/>
    </traci_server>

</sumoConfiguration>
-->

<tripinfos xmlns:xsi="http://www.w3.org/2001/XMLSchema-instance" xsi:noNamespaceSchemaLocation="http://sumo.dlr.de/xsd/tripinfo_file.xsd">
    <tripinfo id="0" depart="2.00" departLane="a210_0" departPos="5.10" departSpeed="0.00" departDelay="0.80" arrival="252.00" arrivalLane="b4[1][1][1]_0" arrivalPos="171.54" arrivalSpeed="14.31" duration="250.00" routeLength="2767.14" waitingTime="34.00" waitingCount="3" stopTime="0.00" timeLoss="61.10" rerouteNo="0" devices="vehroute_0 tripinfo_0 fcd_0" vType="DEFAULT_VEHTYPE" speedFactor="1.06" vaporized=""/>
    <tripinfo id="3" depart="154.00" departLane="a210_0" departPos="5.10" departSpeed="0.00" departDelay="0.52" arrival="406.00" arrivalLane="b4[1][1][1]_0" arrivalPos="171.54" arrivalSpeed="14.78" duration="252.00" routeLength="2767.14" waitingTime="36.00" waitingCount="2" stopTime="0.00" timeLoss="66.88" rerouteNo="0" devices="vehroute_3 tripinfo_3 fcd_3" vType="DEFAULT_VEHTYPE" speedFactor="1.08" vaporized=""/>
    <tripinfo id="2" depart="137.00" departLane="a210_0" departPos="5.10" departSpeed="0.00" departDelay="0.12" arrival="409.00" arrivalLane="b4[1][1][1]_0" arrivalPos="171.54" arrivalSpeed="13.05" duration="272.00" routeLength="2764.18" waitingTime="35.00" waitingCount="2" stopTime="0.00" timeLoss="73.76" rerouteNo="0" devices="vehroute_2 tripinfo_2 fcd_2" vType="DEFAULT_VEHTYPE" speedFactor="1.01" vaporized=""/>
    <tripinfo id="4" depart="173.00" departLane="a210_0" departPos="5.10" departSpeed="0.00" departDelay="0.81" arrival="411.00" arrivalLane="b4[1][1][1]_0" arrivalPos="171.54" arrivalSpeed="13.66" duration="238.00" routeLength="2767.14" waitingTime="26.00" waitingCount="1" stopTime="0.00" timeLoss="43.40" rerouteNo="0" devices="vehroute_4 tripinfo_4 fcd_4" vType="DEFAULT_VEHTYPE" speedFactor="1.03" vaporized=""/>
    <tripinfo id="1" depart="64.00" departLane="a210_0" departPos="5.10" departSpeed="0.00" departDelay="0.32" arrival="415.00" arrivalLane="b4[1][1][1]_0" arrivalPos="171.54" arrivalSpeed="12.36" duration="351.00" routeLength="2767.14" waitingTime="94.00" waitingCount="5" stopTime="0.00" timeLoss="137.10" rerouteNo="0" devices="vehroute_1 tripinfo_1 fcd_1" vType="DEFAULT_VEHTYPE" speedFactor="0.94" vaporized=""/>
    <tripinfo id="6" depart="269.00" departLane="a210_0" departPos="5.10" departSpeed="0.00" departDelay="0.33" arrival="561.00" arrivalLane="b4[1][1][1]_0" arrivalPos="171.54" arrivalSpeed="13.77" duration="292.00" routeLength="2767.14" waitingTime="76.00" waitingCount="2" stopTime="0.00" timeLoss="100.28" rerouteNo="0" devices="vehroute_6 tripinfo_6 fcd_6" vType="DEFAULT_VEHTYPE" speedFactor="1.05" vaporized=""/>
    <tripinfo id="8" depart="288.00" departLane="a210_0" departPos="5.10" departSpeed="0.00" departDelay="0.12" arrival="564.00" arrivalLane="b4[1][1][1]_0" arrivalPos="171.54" arrivalSpeed="12.07" duration="276.00" routeLength="2764.18" waitingTime="31.00" waitingCount="3" stopTime="0.00" timeLoss="62.67" rerouteNo="0" devices="vehroute_8 tripinfo_8 fcd_8" vType="DEFAULT_VEHTYPE" speedFactor="0.94" vaporized=""/>
    <tripinfo id="7" depart="276.00" departLane="a210_0" departPos="5.10" departSpeed="0.00" departDelay="0.90" arrival="567.00" arrivalLane="b4[1][1][1]_0" arrivalPos="171.54" arrivalSpeed="11.29" duration="291.00" routeLength="2767.14" waitingTime="36.00" waitingCount="2" stopTime="0.00" timeLoss="64.99" rerouteNo="0" devices="vehroute_7 tripinfo_7 fcd_7" vType="DEFAULT_VEHTYPE" speedFactor="0.89" vaporized=""/>
    <tripinfo id="5" depart="233.00" departLane="a210_0" departPos="5.10" departSpeed="0.00" departDelay="0.38" arrival="571.00" arrivalLane="b4[1][1][1]_0" arrivalPos="171.54" arrivalSpeed="10.85" duration="338.00" routeLength="2764.18" waitingTime="61.00" waitingCount="3" stopTime="0.00" timeLoss="96.79" rerouteNo="0" devices="vehroute_5 tripinfo_5 fcd_5" vType="DEFAULT_VEHTYPE" speedFactor="0.83" vaporized=""/>
    <tripinfo id="13" depart="480.00" departLane="a210_0" departPos="5.10" departSpeed="0.00" departDelay="0.68" arrival="714.00" arrivalLane="b4[1][1][1]_0" arrivalPos="171.54" arrivalSpeed="14.36" duration="234.00" routeLength="2767.14" waitingTime="31.00" waitingCount="1" stopTime="0.00" timeLoss="55.84" rerouteNo="0" devices="vehroute_13 tripinfo_13 fcd_13" vType="DEFAULT_VEHTYPE" speedFactor="1.12" vaporized=""/>
    <tripinfo id="14" depart="483.00" departLane="a210_0" departPos="5.10" departSpeed="0.00" departDelay="1.31" arrival="722.00" arrivalLane="b4[1][1][1]_0" arrivalPos="171.54" arrivalSpeed="12.60" duration="239.00" routeLength="2767.14" waitingTime="18.00" waitingCount="1" stopTime="0.00" timeLoss="37.17" rerouteNo="0" devices="vehroute_14 tripinfo_14 fcd_14" vType="DEFAULT_VEHTYPE" speedFactor="0.99" vaporized=""/>
    <tripinfo id="9" depart="368.00" departLane="a210_0" departPos="5.10" departSpeed="0.00" departDelay="0.26" arrival="802.00" arrivalLane="b11[0]_0" arrivalPos="90.93" arrivalSpeed="11.78" duration="434.00" routeLength="2879.67" waitingTime="140.00" waitingCount="5" stopTime="0.00" timeLoss="187.04" rerouteNo="0" devices="vehroute_9 tripinfo_9 fcd_9" vType="DEFAULT_VEHTYPE" speedFactor="0.86" vaporized=""/>
    <tripinfo id="10" depart="381.00" departLane="a210_0" departPos="5.10" departSpeed="0.00" departDelay="0.50" arrival="804.00" arrivalLane="b11[0]_0" arrivalPos="90.93" arrivalSpeed="15.14" duration="423.00" routeLength="2879.67" waitingTime="135.00" waitingCount="5" stopTime="0.00" timeLoss="228.19" rerouteNo="0" devices="vehroute_10 tripinfo_10 fcd_10" vType="DEFAULT_VEHTYPE" speedFactor="1.09" vaporized=""/>
    <tripinfo id="11" depart="440.00" departLane="a210_0" departPos="5.10" departSpeed="0.00" departDelay="0.67" arrival="806.00" arrivalLane="b11[0]_0" arrivalPos="90.93" arrivalSpeed="13.10" duration="366.00" routeLength="2879.67" waitingTime="98.00" waitingCount="3" stopTime="0.00" timeLoss="159.64" rerouteNo="0" devices="vehroute_11 tripinfo_11 fcd_11" vType="DEFAULT_VEHTYPE" speedFactor="1.03" vaporized=""/>
    <tripinfo id="12" depart="458.00" departLane="a210_0" departPos="5.10" departSpeed="0.00" departDelay="0.08" arrival="809.00" arrivalLane="b11[0]_0" arrivalPos="90.93" arrivalSpeed="13.80" duration="351.00" routeLength="2879.67" waitingTime="86.00" waitingCount="3" stopTime="0.00" timeLoss="147.20" rerouteNo="0" devices="vehroute_12 tripinfo_12 fcd_12" vType="DEFAULT_VEHTYPE" speedFactor="1.05" vaporized=""/>
    <tripinfo id="15" depart="538.00" departLane="a210_0" departPos="5.10" departSpeed="0.00" departDelay="0.74" arrival="906.00" arrivalLane="b4[1][1][1]_0" arrivalPos="171.54" arrivalSpeed="11.90" duration="368.00" routeLength="2767.14" waitingTime="124.00" waitingCount="3" stopTime="0.00" timeLoss="152.04" rerouteNo="0" devices="vehroute_15 tripinfo_15 fcd_15" vType="DEFAULT_VEHTYPE" speedFactor="0.93" vaporized=""/>
    <tripinfo id="18" depart="637.00" departLane="a210_0" departPos="5.10" departSpeed="0.00" departDelay="0.21" arrival="908.00" arrivalLane="b4[1][1][1]_0" arrivalPos="171.54" arrivalSpeed="12.05" duration="271.00" routeLength="2767.14" waitingTime="30.00" waitingCount="2" stopTime="0.00" timeLoss="56.92" rerouteNo="0" devices="vehroute_18 tripinfo_18 fcd_18" vType="DEFAULT_VEHTYPE" speedFactor="0.94" vaporized=""/>
    <tripinfo id="16" depart="615.00" departLane="a210_0" departPos="5.10" departSpeed="0.00" departDelay="0.61" arrival="911.00" arrivalLane="b4[1][1][1]_0" arrivalPos="171.54" arrivalSpeed="11.73" duration="296.00" routeLength="2767.14" waitingTime="29.00" waitingCount="3" stopTime="0.00" timeLoss="67.96" rerouteNo="0" devices="vehroute_16 tripinfo_16 fcd_16" vType="DEFAULT_VEHTYPE" speedFactor="0.88" vaporized=""/>
    <tripinfo id="17" depart="626.00" departLane="a210_0" departPos="5.10" departSpeed="0.00" departDelay="0.49" arrival="918.00" arrivalLane="b11[0]_0" arrivalPos="90.93" arrivalSpeed="12.47" duration="292.00" routeLength="2879.67" waitingTime="33.00" waitingCount="3" stopTime="0.00" timeLoss="67.53" rerouteNo="0" devices="vehroute_17 tripinfo_17 fcd_17" vType="DEFAULT_VEHTYPE" speedFactor="0.94" vaporized=""/>
    <tripinfo id="19" depart="640.00" departLane="a210_0" departPos="5.10" departSpeed="0.00" departDelay="0.04" arrival="919.00" arrivalLane="b11[0]_0" arrivalPos="90.93" arrivalSpeed="14.98" duration="279.00" routeLength="2879.67" waitingTime="28.00" waitingCount="3" stopTime="0.00" timeLoss="95.73" rerouteNo="0" devices="vehroute_19 tripinfo_19 fcd_19" vType="DEFAULT_VEHTYPE" speedFactor="1.16" vaporized=""/>
    <tripinfo id="22" depart="716.00" departLane="a210_0" departPos="5.10" departSpeed="0.00" departDelay="0.12" arrival="1032.00" arrivalLane="b4[1][1][1]_0" arrivalPos="171.54" arrivalSpeed="13.01" duration="316.00" routeLength="2767.14" waitingTime="88.00" waitingCount="2" stopTime="0.00" timeLoss="110.31" rerouteNo="0" devices="vehroute_22 tripinfo_22 fcd_22" vType="DEFAULT_VEHTYPE" speedFactor="0.97" vaporized=""/>
    <tripinfo id="20" depart="683.00" departLane="a210_0" departPos="5.10" departSpeed="0.00" departDelay="0.10" arrival="1042.00" arrivalLane="b11[0]_0" arrivalPos="90.93" arrivalSpeed="12.97" duration="359.00" routeLength="2879.67" waitingTime="101.00" waitingCount="6" stopTime="0.00" timeLoss="151.16" rerouteNo="0" devices="vehroute_20 tripinfo_20 fcd_20" vType="DEFAULT_VEHTYPE" speedFactor="1.02" vaporized=""/>
    <tripinfo id="21" depart="691.00" departLane="a210_0" departPos="5.10" departSpeed="0.00" departDelay="0.58" arrival="1045.00" arrivalLane="b11[0]_0" arrivalPos="90.93" arrivalSpeed="12.85" duration="354.00" routeLength="2879.67" waitingTime="90.00" waitingCount="5" stopTime="0.00" timeLoss="143.49" rerouteNo="0" devices="vehroute_21 tripinfo_21 fcd_21" vType="DEFAULT_VEHTYPE" speedFactor="1.01" vaporized=""/>
    <tripinfo id="23" depart="763.00" departLane="a210_0" departPos="5.10" departSpeed="0.00" departDelay="0.68" arrival="1048.00" arrivalLane="b11[0]_0" arrivalPos="90.93" arrivalSpeed="12.03" duration="285.00" routeLength="2879.67" waitingTime="9.00" waitingCount="1" stopTime="0.00" timeLoss="47.14" rerouteNo="0" devices="vehroute_23 tripinfo_23 fcd_23" vType="DEFAULT_VEHTYPE" speedFactor="0.89" vaporized=""/>
    <tripinfo id="24" depart="795.00" departLane="a210_0" departPos="5.10" departSpeed="0.00" departDelay="0.11" arrival="1064.00" arrivalLane="b4[1][1][1]_0" arrivalPos="171.54" arrivalSpeed="11.12" duration="269.00" routeLength="2767.14" waitingTime="3.00" waitingCount="1" stopTime="0.00" timeLoss="26.77" rerouteNo="0" devices="vehroute_24 tripinfo_24 fcd_24" vType="DEFAULT_VEHTYPE" speedFactor="0.83" vaporized=""/>
    <tripinfo id="26" depart="825.00" departLane="a210_0" departPos="5.10" departSpeed="0.00" departDelay="0.98" arrival="1172.00" arrivalLane="b11[0]_0" arrivalPos="90.93" arrivalSpeed="11.90" duration="347.00" routeLength="2879.67" waitingTime="72.00" waitingCount="5" stopTime="0.00" timeLoss="116.79" rerouteNo="0" devices="vehroute_26 tripinfo_26 fcd_26" vType="DEFAULT_VEHTYPE" speedFactor="0.92" vaporized=""/>
    <tripinfo id="28" depart="841.00" departLane="a210_0" departPos="5.10" departSpeed="0.00" departDelay="3.48" arrival="1173.00" arrivalLane="b11[0]_0" arrivalPos="90.93" arrivalSpeed="14.63" duration="332.00" routeLength="2879.67" waitingTime="65.00" waitingCount="3" stopTime="0.00" timeLoss="145.24" rerouteNo="0" devices="vehroute_28 tripinfo_28 fcd_28" vType="DEFAULT_VEHTYPE" speedFactor="1.13" vaporized=""/>
    <tripinfo id="30" depart="895.00" departLane="a210_0" departPos="5.10" departSpeed="0.00" departDelay="0.11" arrival="1175.00" arrivalLane="b4[1][1][1]_0" arrivalPos="171.54" arrivalSpeed="15.82" duration="280.00" routeLength="2767.14" waitingTime="72.00" waitingCount="4" stopTime="0.00" timeLoss="110.11" rerouteNo="0" devices="vehroute_30 tripinfo_30 fcd_30" vType="DEFAULT_VEHTYPE" speedFactor="1.18" vaporized=""/>
    <tripinfo id="31" depart="912.00" departLane="a210_0" departPos="5.10" departSpeed="0.00" departDelay="0.99" arrival="1178.00" arrivalLane="b4[1][1][1]_0" arrivalPos="171.54" arrivalSpeed="15.10" duration="266.00" routeLength="2767.14" waitingTime="58.00" waitingCount="3" stopTime="0.00" timeLoss="91.81" rerouteNo="0" devices="vehroute_31 tripinfo_31 fcd_31" vType="DEFAULT_VEHTYPE" speedFactor="1.15" vaporized=""/>
    <tripinfo id="27" depart="838.00" departLane="a210_0" departPos="5.10" departSpeed="0.00" departDelay="0.82" arrival="1182.00" arrivalLane="b4[1][1][1]_0" arrivalPos="171.54" arrivalSpeed="12.92" duration="344.00" routeLength="2764.18" waitingTime="102.00" waitingCount="3" stopTime="0.00" timeLoss="133.26" rerouteNo="0" devices="vehroute_27 tripinfo_27 fcd_27" vType="DEFAULT_VEHTYPE" speedFactor="0.95" vaporized=""/>
    <tripinfo id="29" depart="877.00" departLane="a210_0" departPos="5.10" departSpeed="0.00" departDelay="0.48" arrival="1185.00" arrivalLane="b4[1][1][1]_0" arrivalPos="171.54" arrivalSpeed="12.08" duration="308.00" routeLength="2764.18" waitingTime="55.00" waitingCount="3" stopTime="0.00" timeLoss="93.26" rerouteNo="0" devices="vehroute_29 tripinfo_29 fcd_29" vType="DEFAULT_VEHTYPE" speedFactor="0.93" vaporized=""/>
    <tripinfo id="25" depart="818.00" departLane="a210_0" departPos="5.10" departSpeed="0.00" departDelay="0.93" arrival="1189.00" arrivalLane="b4[1][1][1]_0" arrivalPos="171.54" arrivalSpeed="11.21" duration="371.00" routeLength="2767.14" waitingTime="100.00" waitingCount="3" stopTime="0.00" timeLoss="141.17" rerouteNo="0" devices="vehroute_25 tripinfo_25 fcd_25" vType="DEFAULT_VEHTYPE" speedFactor="0.87" vaporized=""/>
    <tripinfo id="32" depart="956.00" departLane="a210_0" departPos="5.10" departSpeed="0.00" departDelay="0.61" arrival="1195.00" arrivalLane="b4[1][1][1]_0" arrivalPos="171.54" arrivalSpeed="12.77" duration="239.00" routeLength="2767.14" waitingTime="14.00" waitingCount="1" stopTime="0.00" timeLoss="39.19" rerouteNo="0" devices="vehroute_32 tripinfo_32 fcd_32" vType="DEFAULT_VEHTYPE" speedFactor="1.01" vaporized=""/>
    <tripinfo id="34" depart="962.00" departLane="a210_0" departPos="5.10" departSpeed="0.00" departDelay="4.33" arrival="1197.00" arrivalLane="b4[1][1][1]_0" arrivalPos="171.54" arrivalSpeed="12.66" duration="235.00" routeLength="2764.18" waitingTime="13.00" waitingCount="1" stopTime="0.00" timeLoss="33.57" rerouteNo="0" devices="vehroute_34 tripinfo_34 fcd_34" vType="DEFAULT_VEHTYPE" speedFactor="0.99" vaporized=""/>
    <tripinfo id="33" depart="959.00" departLane="a210_0" departPos="5.10" departSpeed="0.00" departDelay="1.94" arrival="1280.00" arrivalLane="b11[0]_0" arrivalPos="90.93" arrivalSpeed="15.22" duration="321.00" routeLength="2879.67" waitingTime="91.00" waitingCount="6" stopTime="0.00" timeLoss="140.17" rerouteNo="0" devices="vehroute_33 tripinfo_33 fcd_33" vType="DEFAULT_VEHTYPE" speedFactor="1.17" vaporized=""/>
    <tripinfo id="35" depart="1000.00" departLane="a210_0" departPos="5.10" departSpeed="0.00" departDelay="0.09" arrival="1283.00" arrivalLane="b11[0]_0" arrivalPos="90.93" arrivalSpeed="13.10" duration="283.00" routeLength="2879.67" waitingTime="37.00" waitingCount="3" stopTime="0.00" timeLoss="75.31" rerouteNo="0" devices="vehroute_35 tripinfo_35 fcd_35" vType="DEFAULT_VEHTYPE" speedFactor="1.02" vaporized=""/>
    <tripinfo id="37" depart="1071.00" departLane="a210_0" departPos="5.10" departSpeed="0.00" departDelay="0.52" arrival="1329.00" arrivalLane="b4[1][1][1]_0" arrivalPos="171.54" arrivalSpeed="15.90" duration="258.00" routeLength="2764.18" waitingTime="52.00" waitingCount="3" stopTime="0.00" timeLoss="88.50" rerouteNo="0" devices="vehroute_37 tripinfo_37 fcd_37" vType="DEFAULT_VEHTYPE" speedFactor="1.18" vaporized=""/>
    <tripinfo id="36" depart="1006.00" departLane="a210_0" departPos="5.10" departSpeed="0.00" departDelay="0.28" arrival="1333.00" arrivalLane="b4[1][1][1]_0" arrivalPos="171.54" arrivalSpeed="12.67" duration="327.00" routeLength="2767.14" waitingTime="90.00" waitingCount="3" stopTime="0.00" timeLoss="121.40" rerouteNo="0" devices="vehroute_36 tripinfo_36 fcd_36" vType="DEFAULT_VEHTYPE" speedFactor="0.97" vaporized=""/>
    <tripinfo id="38" depart="1165.00" departLane="a210_0" departPos="5.10" departSpeed="0.00" departDelay="0.40" arrival="1514.00" arrivalLane="b4[1][1][1]_0" arrivalPos="171.54" arrivalSpeed="14.91" duration="349.00" routeLength="2767.14" waitingTime="127.00" waitingCount="5" stopTime="0.00" timeLoss="167.15" rerouteNo="0" devices="vehroute_38 tripinfo_38 fcd_38" vType="DEFAULT_VEHTYPE" speedFactor="1.10" vaporized=""/>
    <tripinfo id="40" depart="1314.00" departLane="a210_0" departPos="5.10" departSpeed="0.00" departDelay="0.73" arrival="1656.00" arrivalLane="b4[1][1][1]_0" arrivalPos="171.54" arrivalSpeed="13.48" duration="342.00" routeLength="2767.14" waitingTime="106.00" waitingCount="5" stopTime="0.00" timeLoss="147.22" rerouteNo="0" devices="vehroute_40 tripinfo_40 fcd_40" vType="DEFAULT_VEHTYPE" speedFactor="1.03" vaporized=""/>
    <tripinfo id="45" depart="1413.00" departLane="a210_0" departPos="5.10" departSpeed="0.00" departDelay="0.38" arrival="1658.00" arrivalLane="b4[1][1][1]_0" arrivalPos="171.54" arrivalSpeed="15.10" duration="245.00" routeLength="2767.14" waitingTime="29.00" waitingCount="2" stopTime="0.00" timeLoss="59.97" rerouteNo="0" devices="vehroute_45 tripinfo_45 fcd_45" vType="DEFAULT_VEHTYPE" speedFactor="1.09" vaporized=""/>
    <tripinfo id="39" depart="1276.00" departLane="a210_0" departPos="5.10" departSpeed="0.00" departDelay="0.75" arrival="1662.00" arrivalLane="b4[1][1][1]_0" arrivalPos="171.54" arrivalSpeed="12.17" duration="386.00" routeLength="2764.18" waitingTime="118.00" waitingCount="6" stopTime="0.00" timeLoss="164.04" rerouteNo="0" devices="vehroute_39 tripinfo_39 fcd_39" vType="DEFAULT_VEHTYPE" speedFactor="0.90" vaporized=""/>
    <tripinfo id="42" depart="1391.00" departLane="a210_0" departPos="5.10" departSpeed="0.00" departDelay="0.14" arrival="1662.00" arrivalLane="b11[0]_0" arrivalPos="90.93" arrivalSpeed="14.18" duration="271.00" routeLength="2879.67" waitingTime="39.00" waitingCount="3" stopTime="0.00" timeLoss="77.65" rerouteNo="0" devices="vehroute_42 tripinfo_42 fcd_42" vType="DEFAULT_VEHTYPE" speedFactor="1.09" vaporized=""/>
    <tripinfo id="41" depart="1338.00" departLane="a210_0" departPos="5.10" departSpeed="0.00" departDelay="0.93" arrival="1664.00" arrivalLane="b4[1][1][1]_0" arrivalPos="171.54" arrivalSpeed="13.16" duration="326.00" routeLength="2767.14" waitingTime="68.00" waitingCount="5" stopTime="0.00" timeLoss="116.30" rerouteNo="0" devices="vehroute_41 tripinfo_41 fcd_41" vType="DEFAULT_VEHTYPE" speedFactor="0.96" vaporized=""/>
    <tripinfo id="44" depart="1397.00" departLane="a210_0" departPos="5.10" departSpeed="0.00" departDelay="3.52" arrival="1666.00" arrivalLane="b4[1][1][1]_0" arrivalPos="171.54" arrivalSpeed="13.71" duration="269.00" routeLength="2764.18" waitingTime="33.00" waitingCount="2" stopTime="0.00" timeLoss="76.45" rerouteNo="0" devices="vehroute_44 tripinfo_44 fcd_44" vType="DEFAULT_VEHTYPE" speedFactor="1.04" vaporized=""/>
    <tripinfo id="43" depart="1394.00" departLane="a210_0" departPos="5.10" departSpeed="0.00" departDelay="2.74" arrival="1668.00" arrivalLane="b4[1][1][1]_0" arrivalPos="171.54" arrivalSpeed="13.15" duration="274.00" routeLength="2767.14" waitingTime="36.00" waitingCount="2" stopTime="0.00" timeLoss="80.08" rerouteNo="0" devices="vehroute_43 tripinfo_43 fcd_43" vType="DEFAULT_VEHTYPE" speedFactor="1.04" vaporized=""/>
    <tripinfo id="46" depart="1458.00" departLane="a210_0" departPos="5.10" departSpeed="0.00" departDelay="0.73" arrival="1803.00" arrivalLane="b4[1][1][1]_0" arrivalPos="171.54" arrivalSpeed="12.87" duration="345.00" routeLength="2767.14" waitingTime="110.00" waitingCount="4" stopTime="0.00" timeLoss="143.93" rerouteNo="0" devices="vehroute_46 tripinfo_46 fcd_46" vType="DEFAULT_VEHTYPE" speedFactor="1.00" vaporized=""/>
    <tripinfo id="47" depart="1507.00" departLane="a210_0" departPos="5.10" departSpeed="0.00" departDelay="0.11" arrival="1807.00" arrivalLane="b4[1][1][1]_0" arrivalPos="171.54" arrivalSpeed="11.38" duration="300.00" routeLength="2764.18" waitingTime="45.00" waitingCount="3" stopTime="0.00" timeLoss="77.40" rerouteNo="0" devices="vehroute_47 tripinfo_47 fcd_47" vType="DEFAULT_VEHTYPE" speedFactor="0.90" vaporized=""/>
    <tripinfo id="48" depart="1550.00" departLane="a210_0" departPos="5.10" departSpeed="0.00" departDelay="0.79" arrival="1810.00" arrivalLane="b4[1][1][1]_0" arrivalPos="171.54" arrivalSpeed="12.11" duration="260.00" routeLength="2767.14" waitingTime="9.00" waitingCount="1" stopTime="0.00" timeLoss="31.19" rerouteNo="0" devices="vehroute_48 tripinfo_48 fcd_48" vType="DEFAULT_VEHTYPE" speedFactor="0.88" vaporized=""/>
    <tripinfo id="51" depart="1624.00" departLane="a210_0" departPos="5.10" departSpeed="0.00" departDelay="1.77" arrival="1949.00" arrivalLane="b4[1][1][1]_0" arrivalPos="171.54" arrivalSpeed="15.96" duration="325.00" routeLength="2767.14" waitingTime="113.00" waitingCount="3" stopTime="0.00" timeLoss="153.67" rerouteNo="0" devices="vehroute_51 tripinfo_51 fcd_51" vType="DEFAULT_VEHTYPE" speedFactor="1.17" vaporized=""/>
    <tripinfo id="50" depart="1621.00" departLane="a210_0" departPos="5.10" departSpeed="0.00" departDelay="0.55" arrival="1956.00" arrivalLane="b4[1][1][1]_0" arrivalPos="171.54" arrivalSpeed="11.45" duration="335.00" routeLength="2764.18" waitingTime="72.00" waitingCount="3" stopTime="0.00" timeLoss="100.82" rerouteNo="0" devices="vehroute_50 tripinfo_50 fcd_50" vType="DEFAULT_VEHTYPE" speedFactor="0.85" vaporized=""/>
    <tripinfo id="53" depart="1745.00" departLane="a210_0" departPos="5.10" departSpeed="0.00" departDelay="0.43" arrival="1958.00" arrivalLane="b4[1][1][1]_0" arrivalPos="171.54" arrivalSpeed="14.20" duration="213.00" routeLength="2764.18" waitingTime="3.00" waitingCount="1" stopTime="0.00" timeLoss="29.83" rerouteNo="0" devices="vehroute_53 tripinfo_53 fcd_53" vType="DEFAULT_VEHTYPE" speedFactor="1.10" vaporized=""/>
    <tripinfo id="49" depart="1596.00" departLane="a210_0" departPos="5.10" departSpeed="0.00" departDelay="0.22" arrival="1961.00" arrivalLane="b4[1][1][1]_0" arrivalPos="171.54" arrivalSpeed="11.70" duration="365.00" routeLength="2767.14" waitingTime="92.00" waitingCount="3" stopTime="0.00" timeLoss="129.37" rerouteNo="0" devices="vehroute_49 tripinfo_49 fcd_49" vType="DEFAULT_VEHTYPE" speedFactor="0.85" vaporized=""/>
    <tripinfo id="52" depart="1734.00" departLane="a210_0" departPos="5.10" departSpeed="0.00" departDelay="0.11" arrival="1963.00" arrivalLane="b4[1][1][1]_0" arrivalPos="171.54" arrivalSpeed="14.03" duration="229.00" routeLength="2767.14" waitingTime="1.00" waitingCount="1" stopTime="0.00" timeLoss="31.34" rerouteNo="0" devices="vehroute_52 tripinfo_52 fcd_52" vType="DEFAULT_VEHTYPE" speedFactor="1.02" vaporized=""/>
    <tripinfo id="57" depart="1892.00" departLane="a210_0" departPos="5.10" departSpeed="0.00" departDelay="0.18" arrival="2122.00" arrivalLane="b4[1][1][1]_0" arrivalPos="171.54" arrivalSpeed="15.51" duration="230.00" routeLength="2767.14" waitingTime="33.00" waitingCount="2" stopTime="0.00" timeLoss="54.82" rerouteNo="0" devices="vehroute_57 tripinfo_57 fcd_57" vType="DEFAULT_VEHTYPE" speedFactor="1.14" vaporized=""/>
    <tripinfo id="54" depart="1784.00" departLane="a210_0" departPos="5.10" departSpeed="0.00" departDelay="0.37" arrival="2127.00" arrivalLane="b4[1][1][1]_0" arrivalPos="171.54" arrivalSpeed="13.23" duration="343.00" routeLength="2764.18" waitingTime="106.00" waitingCount="4" stopTime="0.00" timeLoss="142.76" rerouteNo="0" devices="vehroute_54 tripinfo_54 fcd_54" vType="DEFAULT_VEHTYPE" speedFactor="1.00" vaporized=""/>
    <tripinfo id="55" depart="1798.00" departLane="a210_0" departPos="5.10" departSpeed="0.00" departDelay="0.40" arrival="2128.00" arrivalLane="b4[1][1][1]_0" arrivalPos="171.54" arrivalSpeed="12.91" duration="330.00" routeLength="2767.14" waitingTime="99.00" waitingCount="3" stopTime="0.00" timeLoss="129.10" rerouteNo="0" devices="vehroute_55 tripinfo_55 fcd_55" vType="DEFAULT_VEHTYPE" speedFactor="1.00" vaporized=""/>
    <tripinfo id="56" depart="1822.00" departLane="a210_0" departPos="5.10" departSpeed="0.00" departDelay="0.01" arrival="2167.00" arrivalLane="b11[0]_0" arrivalPos="90.93" arrivalSpeed="11.84" duration="345.00" routeLength="2879.67" waitingTime="72.00" waitingCount="3" stopTime="0.00" timeLoss="110.33" rerouteNo="0" devices="vehroute_56 tripinfo_56 fcd_56" vType="DEFAULT_VEHTYPE" speedFactor="0.90" vaporized=""/>
    <tripinfo id="58" depart="2032.00" departLane="a210_0" departPos="5.10" departSpeed="0.00" departDelay="0.01" arrival="2276.00" arrivalLane="b4[1][1][1]_0" arrivalPos="171.54" arrivalSpeed="13.81" duration="244.00" routeLength="2767.14" waitingTime="28.00" waitingCount="1" stopTime="0.00" timeLoss="48.12" rerouteNo="0" devices="vehroute_58 tripinfo_58 fcd_58" vType="DEFAULT_VEHTYPE" speedFactor="1.02" vaporized=""/>
    <tripinfo id="60" depart="2140.00" departLane="a210_0" departPos="5.10" departSpeed="0.00" departDelay="0.55" arrival="2392.00" arrivalLane="b11[0]_0" arrivalPos="90.93" arrivalSpeed="14.85" duration="252.00" routeLength="2879.67" waitingTime="23.00" waitingCount="3" stopTime="0.00" timeLoss="56.20" rerouteNo="0" devices="vehroute_60 tripinfo_60 fcd_60" vType="DEFAULT_VEHTYPE" speedFactor="1.08" vaporized=""/>
    <tripinfo id="61" depart="2170.00" departLane="a210_0" departPos="5.10" departSpeed="0.00" departDelay="0.81" arrival="2421.00" arrivalLane="b4[1][1][1]_0" arrivalPos="171.54" arrivalSpeed="15.19" duration="251.00" routeLength="2767.14" waitingTime="40.00" waitingCount="3" stopTime="0.00" timeLoss="71.64" rerouteNo="0" devices="vehroute_61 tripinfo_61 fcd_61" vType="DEFAULT_VEHTYPE" speedFactor="1.12" vaporized=""/>
    <tripinfo id="59" depart="2096.00" departLane="a210_0" departPos="5.10" departSpeed="0.00" departDelay="0.27" arrival="2425.00" arrivalLane="b4[1][1][1]_0" arrivalPos="171.54" arrivalSpeed="13.36" duration="329.00" routeLength="2767.14" waitingTime="94.00" waitingCount="3" stopTime="0.00" timeLoss="122.03" rerouteNo="0" devices="vehroute_59 tripinfo_59 fcd_59" vType="DEFAULT_VEHTYPE" speedFactor="0.97" vaporized=""/>
    <tripinfo id="62" depart="2211.00" departLane="a210_0" departPos="5.10" departSpeed="0.00" departDelay="0.31" arrival="2517.00" arrivalLane="b11[0]_0" arrivalPos="90.93" arrivalSpeed="14.08" duration="306.00" routeLength="2879.67" waitingTime="56.00" waitingCount="5" stopTime="0.00" timeLoss="98.74" rerouteNo="0" devices="vehroute_62 tripinfo_62 fcd_62" vType="DEFAULT_VEHTYPE" speedFactor="1.02" vaporized=""/>
    <tripinfo id="63" depart="2225.00" departLane="a210_0" departPos="5.10" departSpeed="0.00" departDelay="0.01" arrival="2520.00" arrivalLane="b11[0]_0" arrivalPos="90.93" arrivalSpeed="13.34" duration="295.00" routeLength="2879.67" waitingTime="35.00" waitingCount="5" stopTime="0.00" timeLoss="80.51" rerouteNo="0" devices="vehroute_63 tripinfo_63 fcd_63" vType="DEFAULT_VEHTYPE" speedFactor="0.99" vaporized=""/>
    <tripinfo id="64" depart="2229.00" departLane="a210_0" departPos="5.10" departSpeed="0.00" departDelay="0.79" arrival="2523.00" arrivalLane="b11[0]_0" arrivalPos="90.93" arrivalSpeed="12.19" duration="294.00" routeLength="2879.67" waitingTime="19.00" waitingCount="3" stopTime="0.00" timeLoss="68.57" rerouteNo="0" devices="vehroute_64 tripinfo_64 fcd_64" vType="DEFAULT_VEHTYPE" speedFactor="0.94" vaporized=""/>
    <tripinfo id="68" depart="2326.00" departLane="a210_0" departPos="5.10" departSpeed="0.00" departDelay="0.08" arrival="2610.00" arrivalLane="b4[1][1][1]_0" arrivalPos="171.54" arrivalSpeed="13.65" duration="284.00" routeLength="2767.14" waitingTime="61.00" waitingCount="3" stopTime="0.00" timeLoss="91.06" rerouteNo="0" devices="vehroute_68 tripinfo_68 fcd_68" vType="DEFAULT_VEHTYPE" speedFactor="1.04" vaporized=""/>
    <tripinfo id="66" depart="2266.00" departLane="a210_0" departPos="5.10" departSpeed="0.00" departDelay="0.52" arrival="2614.00" arrivalLane="b4[1][1][1]_0" arrivalPos="171.54" arrivalSpeed="12.37" duration="348.00" routeLength="2764.18" waitingTime="95.00" waitingCount="3" stopTime="0.00" timeLoss="127.22" rerouteNo="0" devices="vehroute_66 tripinfo_66 fcd_66" vType="DEFAULT_VEHTYPE" speedFactor="0.91" vaporized=""/>