<?xml version="1.0" encoding="UTF-8"?>

<!-- generated on 2025-03-21 17:46:33 by Eclipse SUMO sumo Version 1.21.0
<sumoConfiguration xmlns:xsi="http://www.w3.org/2001/XMLSchema-instance" xsi:noNamespaceSchemaLocation="http://sumo.dlr.de/xsd/sumoConfiguration.xsd">

    <input>
        <net-file value="${STATICPATH}/joined_lanes.net.xml"/>
        <route-files value="${SIMULATIONPATH}/generatedRoutes.rou.xml"/>
        <additional-files value="${STATICPATH}/detectors.add.xml,${STATICPATH}/joined_vtypes.add.xml,${STATICPATH}/joined_tls.add.xml"/>
    </input>

    <output>
        <fcd-output value="${SIMULATIONPATH}/fcd.xml"/>
        <queue-output value="${SIMULATIONPATH}/queue.xml"/>
        <summary-output value="${SIMULATIONPATH}/summary.xml"/>
        <tripinfo-output value="${SIMULATIONPATH}/tripinfos.xml"/>
        <vehroute-output value="${SIMULATIONPATH}/vehroute.xml"/>
        <save-state.prefix value="configs\state"/>
    </output>

    <processing>
        <ignore-junction-blocker value="1"/>
        <ignore-route-errors value="true"/>
        <time-to-teleport value="-1"/>
    </processing>

    <report>
        <log value="C:/Users/fabio/Desktop/sumo_log.txt"/>
        <no-step-log value="true"/>
    </report>

    <emissions>
        <phemlight-path value="configs\./PHEMlight/"/>
    </emissions>

    <traci_server>
        <remote-port value="60152"/>
    </traci_server>

</sumoConfiguration>
-->

<routes xmlns:xsi="http://www.w3.org/2001/XMLSchema-instance" xsi:noNamespaceSchemaLocation="http://sumo.dlr.de/xsd/routes_file.xsd">
    <vehicle id="0" depart="2.00" arrival="252.00">
        <route edges="a210 a43[0] a43[1] a201 a201c a204a[0] a124 b12 b56[0] b56[1][0] b56[1][1] b5[1][0]+66 b5[1][1][1] b8 b4[1][1][1]"/>
    </vehicle>

    <vehicle id="3" depart="154.00" arrival="406.00">
        <route edges="a210 a43[0] a43[1] a201 a201c a204a[0] a124 b12 b56[0] b56[1][0] b56[1][1] b5[1][0]+66 b5[1][1][1] b8 b4[1][1][1]"/>
    </vehicle>

    <vehicle id="2" depart="137.00" arrival="409.00">
        <route edges="a210 a43[0] a43[1] a201 a201c a204a[0] a124 b12 b56[0] b56[1][0] b56[1][1] b5[1][0]+66 b5[1][1][1] b8 b4[1][1][1]"/>
    </vehicle>

    <vehicle id="4" depart="173.00" arrival="411.00">
        <route edges="a210 a43[0] a43[1] a201 a201c a204a[0] a124 b12 b56[0] b56[1][0] b56[1][1] b5[1][0]+66 b5[1][1][1] b8 b4[1][1][1]"/>
    </vehicle>

    <vehicle id="1" depart="64.00" arrival="415.00">
        <route edges="a210 a43[0] a43[1] a201 a201c a204a[0] a124 b12 b56[0] b56[1][0] b56[1][1] b5[1][0]+66 b5[1][1][1] b8 b4[1][1][1]"/>
    </vehicle>

    <vehicle id="6" depart="269.00" arrival="561.00">
        <route edges="a210 a43[0] a43[1] a201 a201c a204a[0] a124 b12 b56[0] b56[1][0] b56[1][1] b5[1][0]+66 b5[1][1][1] b8 b4[1][1][1]"/>
    </vehicle>

    <vehicle id="8" depart="288.00" arrival="564.00">
        <route edges="a210 a43[0] a43[1] a201 a201c a204a[0] a124 b12 b56[0] b56[1][0] b56[1][1] b5[1][0]+66 b5[1][1][1] b8 b4[1][1][1]"/>
    </vehicle>

    <vehicle id="7" depart="276.00" arrival="567.00">
        <route edges="a210 a43[0] a43[1] a201 a201c a204a[0] a124 b12 b56[0] b56[1][0] b56[1][1] b5[1][0]+66 b5[1][1][1] b8 b4[1][1][1]"/>
    </vehicle>

    <vehicle id="5" depart="233.00" arrival="571.00">
        <route edges="a210 a43[0] a43[1] a201 a201c a204a[0] a124 b12 b56[0] b56[1][0] b56[1][1] b5[1][0]+66 b5[1][1][1] b8 b4[1][1][1]"/>
    </vehicle>

    <vehicle id="13" depart="480.00" arrival="714.00">
        <route edges="a210 a43[0] a43[1] a201 a201c a204a[0] a124 b12 b56[0] b56[1][0] b56[1][1] b5[1][0]+66 b5[1][1][1] b8 b4[1][1][1]"/>
    </vehicle>

    <vehicle id="14" depart="483.00" arrival="722.00">
        <route edges="a210 a43[0] a43[1] a201 a201c a204a[0] a124 b12 b56[0] b56[1][0] b56[1][1] b5[1][0]+66 b5[1][1][1] b8 b4[1][1][1]"/>
    </vehicle>

    <vehicle id="9" depart="368.00" arrival="802.00">
        <route edges="a210 a43[0] a43[1] a115 a110 a185 a92 a90 am91 a88 a187 a191 a17 a71 b38[0] b38[0]a b37 b26 b26.-170 b17[0] b17[1] b11[0]"/>
    </vehicle>

    <vehicle id="10" depart="381.00" arrival="804.00">
        <route edges="a210 a43[0] a43[1] a115 a110 a185 a92 a90 am91 a88 a187 a191 a17 a71 b38[0] b38[0]a b37 b26 b26.-170 b17[0] b17[1] b11[0]"/>
    </vehicle>

    <vehicle id="11" depart="440.00" arrival="806.00">
        <route edges="a210 a43[0] a43[1] a115 a110 a185 a92 a90 am91 a88 a187 a191 a17 a71 b38[0] b38[0]a b37 b26 b26.-170 b17[0] b17[1] b11[0]"/>
    </vehicle>

    <vehicle id="12" depart="458.00" arrival="809.00">
        <route edges="a210 a43[0] a43[1] a115 a110 a185 a92 a90 am91 a88 a187 a191 a17 a71 b38[0] b38[0]a b37 b26 b26.-170 b17[0] b17[1] b11[0]"/>
    </vehicle>

    <vehicle id="15" depart="538.00" arrival="906.00">
        <route edges="a210 a43[0] a43[1] a201 a201c a204a[0] a124 b12 b56[0] b56[1][0] b56[1][1] b5[1][0]+66 b5[1][1][1] b8 b4[1][1][1]"/>
    </vehicle>

    <vehicle id="18" depart="637.00" arrival="908.00">
        <route edges="a210 a43[0] a43[1] a201 a201c a204a[0] a124 b12 b56[0] b56[1][0] b56[1][1] b5[1][0]+66 b5[1][1][1] b8 b4[1][1][1]"/>
    </vehicle>

    <vehicle id="16" depart="615.00" arrival="911.00">
        <route edges="a210 a43[0] a43[1] a201 a201c a204a[0] a124 b12 b56[0] b56[1][0] b56[1][1] b5[1][0]+66 b5[1][1][1] b8 b4[1][1][1]"/>
    </vehicle>

    <vehicle id="17" depart="626.00" arrival="918.00">
        <route edges="a210 a43[0] a43[1] a115 a110 a185 a92 a90 am91 a88 a187 a191 a17 a71 b38[0] b38[0]a b37 b26 b26.-170 b17[0] b17[1] b11[0]"/>
    </vehicle>

    <vehicle id="19" depart="640.00" arrival="919.00">
        <route edges="a210 a43[0] a43[1] a115 a110 a185 a92 a90 am91 a88 a187 a191 a17 a71 b38[0] b38[0]a b37 b26 b26.-170 b17[0] b17[1] b11[0]"/>
    </vehicle>

    <vehicle id="22" depart="716.00" arrival="1032.00">
        <route edges="a210 a43[0] a43[1] a201 a201c a204a[0] a124 b12 b56[0] b56[1][0] b56[1][1] b5[1][0]+66 b5[1][1][1] b8 b4[1][1][1]"/>
    </vehicle>

    <vehicle id="20" depart="683.00" arrival="1042.00">
        <route edges="a210 a43[0] a43[1] a115 a110 a185 a92 a90 am91 a88 a187 a191 a17 a71 b38[0] b38[0]a b37 b26 b26.-170 b17[0] b17[1] b11[0]"/>
    </vehicle>

    <vehicle id="21" depart="691.00" arrival="1045.00">
        <route edges="a210 a43[0] a43[1] a115 a110 a185 a92 a90 am91 a88 a187 a191 a17 a71 b38[0] b38[0]a b37 b26 b26.-170 b17[0] b17[1] b11[0]"/>
    </vehicle>

    <vehicle id="23" depart="763.00" arrival="1048.00">
        <route edges="a210 a43[0] a43[1] a115 a110 a185 a92 a90 am91 a88 a187 a191 a17 a71 b38[0] b38[0]a b37 b26 b26.-170 b17[0] b17[1] b11[0]"/>
    </vehicle>

    <vehicle id="24" depart="795.00" arrival="1064.00">
        <route edges="a210 a43[0] a43[1] a201 a201c a204a[0] a124 b12 b56[0] b56[1][0] b56[1][1] b5[1][0]+66 b5[1][1][1] b8 b4[1][1][1]"/>
    </vehicle>

    <vehicle id="26" depart="825.00" arrival="1172.00">
        <route edges="a210 a43[0] a43[1] a115 a110 a185 a92 a90 am91 a88 a187 a191 a17 a71 b38[0] b38[0]a b37 b26 b26.-170 b17[0] b17[1] b11[0]"/>
    </vehicle>

    <vehicle id="28" depart="841.00" arrival="1173.00">
        <route edges="a210 a43[0] a43[1] a115 a110 a185 a92 a90 am91 a88 a187 a191 a17 a71 b38[0] b38[0]a b37 b26 b26.-170 b17[0] b17[1] b11[0]"/>
    </vehicle>

    <vehicle id="30" depart="895.00" arrival="1175.00">
        <route edges="a210 a43[0] a43[1] a201 a201c a204a[0] a124 b12 b56[0] b56[1][0] b56[1][1] b5[1][0]+66 b5[1][1][1] b8 b4[1][1][1]"/>
    </vehicle>

    <vehicle id="31" depart="912.00" arrival="1178.00">
        <route edges="a210 a43[0] a43[1] a201 a201c a204a[0] a124 b12 b56[0] b56[1][0] b56[1][1] b5[1][0]+66 b5[1][1][1] b8 b4[1][1][1]"/>
    </vehicle>

    <vehicle id="27" depart="838.00" arrival="1182.00">
        <route edges="a210 a43[0] a43[1] a201 a201c a204a[0] a124 b12 b56[0] b56[1][0] b56[1][1] b5[1][0]+66 b5[1][1][1] b8 b4[1][1][1]"/>
    </vehicle>

    <vehicle id="29" depart="877.00" arrival="1185.00">
        <route edges="a210 a43[0] a43[1] a201 a201c a204a[0] a124 b12 b56[0] b56[1][0] b56[1][1] b5[1][0]+66 b5[1][1][1] b8 b4[1][1][1]"/>
    </vehicle>

    <vehicle id="25" depart="818.00" arrival="1189.00">
        <route edges="a210 a43[0] a43[1] a201 a201c a204a[0] a124 b12 b56[0] b56[1][0] b56[1][1] b5[1][0]+66 b5[1][1][1] b8 b4[1][1][1]"/>
    </vehicle>

    <vehicle id="32" depart="956.00" arrival="1195.00">
        <route edges="a210 a43[0] a43[1] a201 a201c a204a[0] a124 b12 b56[0] b56[1][0] b56[1][1] b5[1][0]+66 b5[1][1][1] b8 b4[1][1][1]"/>
    </vehicle>

    <vehicle id="34" depart="962.00" arrival="1197.00">
        <route edges="a210 a43[0] a43[1] a201 a201c a204a[0] a124 b12 b56[0] b56[1][0] b56[1][1] b5[1][0]+66 b5[1][1][1] b8 b4[1][1][1]"/>
    </vehicle>

    <vehicle id="33" depart="959.00" arrival="1280.00">
        <route edges="a210 a43[0] a43[1] a115 a110 a185 a92 a90 am91 a88 a187 a191 a17 a71 b38[0] b38[0]a b37 b26 b26.-170 b17[0] b17[1] b11[0]"/>
    </vehicle>

    <vehicle id="35" depart="1000.00" arrival="1283.00">
        <route edges="a210 a43[0] a43[1] a115 a110 a185 a92 a90 am91 a88 a187 a191 a17 a71 b38[0] b38[0]a b37 b26 b26.-170 b17[0] b17[1] b11[0]"/>
    </vehicle>

    <vehicle id="37" depart="1071.00" arrival="1329.00">
        <route edges="a210 a43[0] a43[1] a201 a201c a204a[0] a124 b12 b56[0] b56[1][0] b56[1][1] b5[1][0]+66 b5[1][1][1] b8 b4[1][1][1]"/>
    </vehicle>

    <vehicle id="36" depart="1006.00" arrival="1333.00">
        <route edges="a210 a43[0] a43[1] a201 a201c a204a[0] a124 b12 b56[0] b56[1][0] b56[1][1] b5[1][0]+66 b5[1][1][1] b8 b4[1][1][1]"/>
    </vehicle>

    <vehicle id="38" depart="1165.00" arrival="1514.00">
        <route edges="a210 a43[0] a43[1] a201 a201c a204a[0] a124 b12 b56[0] b56[1][0] b56[1][1] b5[1][0]+66 b5[1][1][1] b8 b4[1][1][1]"/>
    </vehicle>

    <vehicle id="40" depart="1314.00" arrival="1656.00">
        <route edges="a210 a43[0] a43[1] a201 a201c a204a[0] a124 b12 b56[0] b56[1][0] b56[1][1] b5[1][0]+66 b5[1][1][1] b8 b4[1][1][1]"/>
    </vehicle>

    <vehicle id="45" depart="1413.00" arrival="1658.00">
        <route edges="a210 a43[0] a43[1] a201 a201c a204a[0] a124 b12 b56[0] b56[1][0] b56[1][1] b5[1][0]+66 b5[1][1][1] b8 b4[1][1][1]"/>
    </vehicle>

    <vehicle id="39" depart="1276.00" arrival="1662.00">
        <route edges="a210 a43[0] a43[1] a201 a201c a204a[0] a124 b12 b56[0] b56[1][0] b56[1][1] b5[1][0]+66 b5[1][1][1] b8 b4[1][1][1]"/>
    </vehicle>

    <vehicle id="42" depart="1391.00" arrival="1662.00">
        <route edges="a210 a43[0] a43[1] a115 a110 a185 a92 a90 am91 a88 a187 a191 a17 a71 b38[0] b38[0]a b37 b26 b26.-170 b17[0] b17[1] b11[0]"/>
    </vehicle>

    <vehicle id="41" depart="1338.00" arrival="1664.00">
        <route edges="a210 a43[0] a43[1] a201 a201c a204a[0] a124 b12 b56[0] b56[1][0] b56[1][1] b5[1][0]+66 b5[1][1][1] b8 b4[1][1][1]"/>
    </vehicle>

    <vehicle id="44" depart="1397.00" arrival="1666.00">
        <route edges="a210 a43[0] a43[1] a201 a201c a204a[0] a124 b12 b56[0] b56[1][0] b56[1][1] b5[1][0]+66 b5[1][1][1] b8 b4[1][1][1]"/>
    </vehicle>

    <vehicle id="43" depart="1394.00" arrival="1668.00">
        <route edges="a210 a43[0] a43[1] a201 a201c a204a[0] a124 b12 b56[0] b56[1][0] b56[1][1] b5[1][0]+66 b5[1][1][1] b8 b4[1][1][1]"/>
    </vehicle>

    <vehicle id="46" depart="1458.00" arrival="1803.00">
        <route edges="a210 a43[0] a43[1] a201 a201c a204a[0] a124 b12 b56[0] b56[1][0] b56[1][1] b5[1][0]+66 b5[1][1][1] b8 b4[1][1][1]"/>
    </vehicle>

    <vehicle id="47" depart="1507.00" arrival="1807.00">
        <route edges="a210 a43[0] a43[1] a201 a201c a204a[0] a124 b12 b56[0] b56[1][0] b56[1][1] b5[1][0]+66 b5[1][1][1] b8 b4[1][1][1]"/>
    </vehicle>

    <vehicle id="48" depart="1550.00" arrival="1810.00">
        <route edges="a210 a43[0] a43[1] a201 a201c a204a[0] a124 b12 b56[0] b56[1][0] b56[1][1] b5[1][0]+66 b5[1][1][1] b8 b4[1][1][1]"/>
    </vehicle>

    <vehicle id="51" depart="1624.00" arrival="1949.00">
        <route edges="a210 a43[0] a43[1] a201 a201c a204a[0] a124 b12 b56[0] b56[1][0] b56[1][1] b5[1][0]+66 b5[1][1][1] b8 b4[1][1][1]"/>
    </vehicle>

    <vehicle id="50" depart="1621.00" arrival="1956.00">
        <route edges="a210 a43[0] a43[1] a201 a201c a204a[0] a124 b12 b56[0] b56[1][0] b56[1][1] b5[1][0]+66 b5[1][1][1] b8 b4[1][1][1]"/>
    </vehicle>

    <vehicle id="53" depart="1745.00" arrival="1958.00">
        <route edges="a210 a43[0] a43[1] a201 a201c a204a[0] a124 b12 b56[0] b56[1][0] b56[1][1] b5[1][0]+66 b5[1][1][1] b8 b4[1][1][1]"/>
    </vehicle>

    <vehicle id="49" depart="1596.00" arrival="1961.00">
        <route edges="a210 a43[0] a43[1] a201 a201c a204a[0] a124 b12 b56[0] b56[1][0] b56[1][1] b5[1][0]+66 b5[1][1][1] b8 b4[1][1][1]"/>
    </vehicle>

    <vehicle id="52" depart="1734.00" arrival="1963.00">
        <route edges="a210 a43[0] a43[1] a201 a201c a204a[0] a124 b12 b56[0] b56[1][0] b56[1][1] b5[1][0]+66 b5[1][1][1] b8 b4[1][1][1]"/>
    </vehicle>

    <vehicle id="57" depart="1892.00" arrival="2122.00">
        <route edges="a210 a43[0] a43[1] a201 a201c a204a[0] a124 b12 b56[0] b56[1][0] b56[1][1] b5[1][0]+66 b5[1][1][1] b8 b4[1][1][1]"/>
    </vehicle>

    <vehicle id="54" depart="1784.00" arrival="2127.00">
        <route edges="a210 a43[0] a43[1] a201 a201c a204a[0] a124 b12 b56[0] b56[1][0] b56[1][1] b5[1][0]+66 b5[1][1][1] b8 b4[1][1][1]"/>
    </vehicle>

    <vehicle id="55" depart="1798.00" arrival="2128.00">
        <route edges="a210 a43[0] a43[1] a201 a201c a204a[0] a124 b12 b56[0] b56[1][0] b56[1][1] b5[1][0]+66 b5[1][1][1] b8 b4[1][1][1]"/>
    </vehicle>

    <vehicle id="56" depart="1822.00" arrival="2167.00">
        <route edges="a210 a43[0] a43[1] a115 a110 a185 a92 a90 am91 a88 a187 a191 a17 a71 b38[0] b38[0]a b37 b26 b26.-170 b17[0] b17[1] b11[0]"/>
    </vehicle>

    <vehicle id="58" depart="2032.00" arrival="2276.00">
        <route edges="a210 a43[0] a43[1] a201 a201c a204a[0] a124 b12 b56[0] b56[1][0] b56[1][1] b5[1][0]+66 b5[1][1][1] b8 b4[1][1][1]"/>
    </vehicle>

    <vehicle id="60" depart="2140.00" arrival="2392.00">
        <route edges="a210 a43[0] a43[1] a115 a110 a185 a92 a90 am91 a88 a187 a191 a17 a71 b38[0] b38[0]a b37 b26 b26.-170 b17[0] b17[1] b11[0]"/>
    </vehicle>

    <vehicle id="61" depart="2170.00" arrival="2421.00">
        <route edges="a210 a43[0] a43[1] a201 a201c a204a[0] a124 b12 b56[0] b56[1][0] b56[1][1] b5[1][0]+66 b5[1][1][1] b8 b4[1][1][1]"/>
    </vehicle>

    <vehicle id="59" depart="2096.00" arrival="2425.00">
        <route edges="a210 a43[0] a43[1] a201 a201c a204a[0] a124 b12 b56[0] b56[1][0] b56[1][1] b5[1][0]+66 b5[1][1][1] b8 b4[1][1][1]"/>
    </vehicle>

    <vehicle id="62" depart="2211.00" arrival="2517.00">
        <route edges="a210 a43[0] a43[1] a115 a110 a185 a92 a90 am91 a88 a187 a191 a17 a71 b38[0] b38[0]a b37 b26 b26.-170 b17[0] b17[1] b11[0]"/>
    </vehicle>

    <vehicle id="63" depart="2225.00" arrival="2520.00">
        <route edges="a210 a43[0] a43[1] a115 a110 a185 a92 a90 am91 a88 a187 a191 a17 a71 b38[0] b38[0]a b37 b26 b26.-170 b17[0] b17[1] b11[0]"/>
    </vehicle>

    <vehicle id="64" depart="2229.00" arrival="2523.00">
        <route edges="a210 a43[0] a43[1] a115 a110 a185 a92 a90 am91 a88 a187 a191 a17 a71 b38[0] b38[0]a b37 b26 b26.-170 b17[0] b17[1] b11[0]"/>
    </vehicle>

    <vehicle id="68" depart="2326.00" arrival="2610.00">
        <route edges="a210 a43[0] a43[1] a201 a201c a204a[0] a124 b12 b56[0] b56[1][0] b56[1][1] b5[1][0]+66 b5[1][1][1] b8 b4[1][1][1]"/>
    </vehicle>

    <vehicle id="66" depart="2266.00" arrival="2614.00">
        <route edges="a210 a43[0] a43[1] a201 a201c a204a[0] a124 b12 b56[0] b56[1][0] b56[1][1] b5[1][0]+66 b5[1][1][1] b8 b4[1][1][1]"/>
    </vehicle>

    <vehicle id="67" depart="2280.00" arrival="2617.00">
        <route edges="a210 a43[0] a43[1] a201 a201c a204a[0] a124 b12 b56[0] b56[1][0] b56[1][1] b5[1][0]+66 b5[1][1][1] b8 b4[1][1][1]"/>
    </vehicle>

    <vehicle id="65" depart="2232.00" arrival="2620.00">
        <route edges="a210 a43[0] a43[1] a201 a201c a204a[0] a124 b12 b56[0] b56[1][0] b56[1][1] b5[1][0]+66 b5[1][1][1] b8 b4[1][1][1]"/>
    </vehicle>

    <vehicle id="69" depart="2347.00" arrival="2622.00">
        <route edges="a210 a43[0] a43[1] a201 a201c a204a[0] a124 b12 b56[0] b56[1][0] b56[1][1] b5[1][0]+66 b5[1][1][1] b8 b4[1][1][1]"/>
    </vehicle>

    <vehicle id="71" depart="2361.00" arrival="2623.00">
        <route edges="a210 a43[0] a43[1] a201 a201c a204a[0] a124 b12 b56[0] b56[1][0] b56[1][1] b5[1][0]+66 b5[1][1][1] b8 b4[1][1][1]"/>
    </vehicle>

    <vehicle id="72" depart="2372.00" arrival="2626.00">
        <route edges="a210 a43[0] a43[1] a201 a201c a204a[0] a124 b12 b56[0] b56[1][0] b56[1][1] b5[1][0]+66 b5[1][1][1] b8 b4[1][1][1]"/>
    </vehicle>

    <vehicle id="70" depart="2355.00" arrival="2640.00">
        <route edges="a210 a43[0] a43[1] a115 a110 a185 a92 a90 am91 a88 a187 a191 a17 a71 b38[0] b38[0]a b37 b26 b26.-170 b17[0] b17[1] b11[0]"/>
    </vehicle>

    <vehicle id="73" depart="2452.00" arrival="2741.00">
        <route edges="a210 a43[0] a43[1] a201 a201c a204a[0] a124 b12 b56[0] b56[1][0] b56[1][1] b5[1][0]+66 b5[1][1][1] b8 b4[1][1][1]"/>
    </vehicle>

    <vehicle id="74" depart="2490.00" arrival="2767.00">
        <route edges="a210 a43[0] a43[1] a115 a110 a185 a92 a90 am91 a88 a187 a191 a17 a71 b38[0] b38[0]a b37 b26 b26.-170 b17[0] b17[1] b11[0]"/>
    </vehicle>

    <vehicle id="75" depart="2608.00" arrival="2904.00">
        <route edges="a210 a43[0] a43[1] a201 a201c a204a[0] a124 b12 b56[0] b56[1][0] b56[1][1] b5[1][0]+66 b5[1][1][1] b8 b4[1][1][1]"/>
    </vehicle>

    <vehicle id="76" depart="2687.00" arrival="2906.00">
        <route edges="a210 a43[0] a43[1] a201 a201c a204a[0] a124 b12 b56[0] b56[1][0] b56[1][1] b5[1][0]+66 b5[1][1][1] b8 b4[1][1][1]"/>
    </vehicle>

    <vehicle id="77" depart="2716.00" arrival="3058.00">
        <route edges="a210 a43[0] a43[1] a201 a201c a204a[0] a124 b12 b56[0] b56[1][0] b56[1][1] b5[1][0]+66 b5[1][1][1] b8 b4[1][1][1]"/>
    </vehicle>

    <vehicle id="80" depart="2818.00" arrival="3060.00">
        <route edges="a210 a43[0] a43[1] a201 a201c a204a[0] a124 b12 b56[0] b56[1][0] b56[1][1] b5[1][0]+66 b5[1][1][1] b8 b4[1][1][1]"/>
    </vehicle>

    <vehicle id="78" depart="2797.00" arrival="3147.00">
        <route edges="a210 a43[0] a43[1] a115 a110 a185 a92 a90 am91 a88 a187 a191 a17 a71 b38[0] b38[0]a b37 b26 b26.-170 b17[0] b17[1] b11[0]"/>
    </vehicle>

    <vehicle id="79" depart="2813.00" arrival="3149.00">
        <route edges="a210 a43[0] a43[1] a115 a110 a185 a92 a90 am91 a88 a187 a191 a17 a71 b38[0] b38[0]a b37 b26 b26.-170 b17[0] b17[1] b11[0]"/>
    </vehicle>

    <vehicle id="81" depart="2846.00" arrival="3152.00">
        <route edges="a210 a43[0] a43[1] a115 a110 a185 a92 a90 am91 a88 a187 a191 a17 a71 b38[0] b38[0]a b37 b26 b26.-170 b17[0] b17[1] b11[0]"/>
    </vehicle>

    <vehicle id="84" depart="2919.00" arrival="3196.00">
        <route edges="a210 a43[0] a43[1] a201 a201c a204a[0] a124 b12 b56[0] b56[1][0] b56[1][1] b5[1][0]+66 b5[1][1][1] b8 b4[1][1][1]"/>
    </vehicle>

    <vehicle id="82" depart="2852.00" arrival="3199.00">
        <route edges="a210 a43[0] a43[1] a201 a201c a204a[0] a124 b12 b56[0] b56[1][0] b56[1][1] b5[1][0]+66 b5[1][1][1] b8 b4[1][1][1]"/>
    </vehicle>

    <vehicle id="86" depart="3004.00" arrival="3224.00">
        <route edges="a210 a43[0] a43[1] a201 a201c a204a[0] a124 b12 b56[0] b56[1][0] b56[1][1] b5[1][0]+66 b5[1][1][1] b8 b4[1][1][1]"/>
    </vehicle>

    <vehicle id="85" depart="2971.00" arrival="3228.00">
        <route edges="a210 a43[0] a43[1] a201 a201c a204a[0] a124 b12 b56[0] b56[1][0] b56[1][1] b5[1][0]+66 b5[1][1][1] b8 b4[1][1][1]"/>
    </vehicle>

    <vehicle id="83" depart="2912.00" arrival="3257.00">
        <route edges="a210 a43[0] a43[1] a115 a110 a185 a92 a90 am91 a88 a187 a191 a17 a71 b38[0] b38[0]a b37 b26 b26.-170 b17[0] b17[1] b11[0]"/>
    </vehicle>

    <vehicle id="87" depart="3053.00" arrival="3377.00">
        <route edges="a210 a43[0] a43[1] a115 a110 a185 a92 a90 am91 a88 a187 a191 a17 a71 b38[0] b38[0]a b37 b26 b26.-170 b17[0] b17[1] b11[0]"/>
    </vehicle>

    <vehicle id="88" depart="3066.00" arrival="3380.00">
        <route edges="a210 a43[0] a43[1] a115 a110 a185 a92 a90 am91 a88 a187 a191 a17 a71 b38[0] b38[0]a b37 b26 b26.-170 b17[0] b17[1] b11[0]"/>
    </vehicle>

    <vehicle id="89" depart="3095.00" arrival="3383.00">
        <route edges="a210 a43[0] a43[1] a115 a110 a185 a92 a90 am91 a88 a187 a191 a17 a71 b38[0] b38[0]a b37 b26 b26.-170 b17[0] b17[1] b11[0]"/>
    </vehicle>

    <vehicle id="90" depart="3113.00" arrival="3385.00">
        <route edges="a210 a43[0] a43[1] a201 a201c a204a[0] a124 b12 b56[0] b56[1][0] b56[1][1] b5[1][0]+66 b5[1][1][1] b8 b4[1][1][1]"/>
    </vehicle>

    <vehicle id="91" depart="3154.00" arrival="3510.00">
        <route edges="a210 a43[0] a43[1] a115 a110 a185 a92 a90 am91 a88 a187 a191 a17 a71 b38[0] b38[0]a b37 b26 b26.-170 b17[0] b17[1] b11[0]"/>
    </vehicle>

    <vehicle id="93" depart="3202.00" arrival="3512.00">
        <route edges="a210 a43[0] a43[1] a115 a110 a185 a92 a90 am91 a88 a187 a191 a17 a71 b38[0] b38[0]a b37 b26 b26.-170 b17[0] b17[1] b11[0]"/>
    </vehicle>

    <vehicle id="92" depart="3177.00" arrival="3552.00">
        <route edges="a210 a43[0] a43[1] a201 a201c a204a[0] a124 b12 b56[0] b56[1][0] b56[1][1] b5[1][0]+66 b5[1][1][1] b8 b4[1][1][1]"/>
    </vehicle>

    <vehicle id="94" depart="3350.00" arrival="3674.00">
        <route edges="a210 a43[0] a43[1] a201 a201c a204a[0] a124 b12 b56[0] b56[1][0] b56[1][1] b5[1][0]+66 b5[1][1][1] b8 b4[1][1][1]"/>
    </vehicle>

    <vehicle id="95" depart="3372.00" arrival="3676.00">
        <route edges="a210 a43[0] a43[1] a201 a201c a204a[0] a124 b12 b56[0] b56[1][0] b56[1][1] b5[1][0]+66 b5[1][1][1] b8 b4[1][1][1]"/>
    </vehicle>

    <vehicle id="96" depart="3395.00" arrival="3748.00">
        <route edges="a210 a43[0] a43[1] a115 a110 a185 a92 a90 am91 a88 a187 a191 a17 a71 b38[0] b38[0]a b37 b26 b26.-170 b17[0] b17[1] b11[0]"/>
    </vehicle>

    <vehicle id="97" depart="3443.00" arrival="3752.00">
        <route edges="a210 a43[0] a43[1] a115 a110 a185 a92 a90 am91 a88 a187 a191 a17 a71 b38[0] b38[0]a b37 b26 b26.-170 b17[0] b17[1] b11[0]"/>
    </vehicle>

    <vehicle id="98" depart="3470.00" arrival="3753.00">
        <route edges="a210 a43[0] a43[1] a115 a110 a185 a92 a90 am91 a88 a187 a191 a17 a71 b38[0] b38[0]a b37 b26 b26.-170 b17[0] b17[1] b11[0]"/>
    </vehicle>

    <vehicle id="99" depart="3558.00" arrival="3850.00">
        <route edges="a210 a43[0] a43[1] a201 a201c a204a[0] a124 b12 b56[0] b56[1][0] b56[1][1] b5[1][0]+66 b5[1][1][1] b8 b4[1][1][1]"/>
    </vehicle>

</routes>
