<?xml version="1.0" encoding="UTF-8"?>

<!-- generated on 2025-03-21 18:05:52 by Eclipse SUMO sumo Version 1.21.0
<sumoConfiguration xmlns:xsi="http://www.w3.org/2001/XMLSchema-instance" xsi:noNamespaceSchemaLocation="http://sumo.dlr.de/xsd/sumoConfiguration.xsd">

    <input>
        <net-file value="${STATICPATH}/joined_lanes.net.xml"/>
        <route-files value="${SIMULATIONPATH}/generatedRoutes.rou.xml"/>
        <additional-files value="${STATICPATH}/detectors.add.xml,${STATICPATH}/joined_vtypes.add.xml,${STATICPATH}/joined_tls.add.xml"/>
    </input>

    <output>
        <fcd-output value="${SIMULATIONPATH}/fcd.xml"/>
        <queue-output value="${SIMULATIONPATH}/queue.xml"/>
        <summary-output value="${SIMULATIONPATH}/summary.xml"/>
        <tripinfo-output value="${SIMULATIONPATH}/tripinfos.xml"/>
        <vehroute-output value="${SIMULATIONPATH}/vehroute.xml"/>
        <save-state.prefix value="configs\state"/>
    </output>

    <processing>
        <ignore-junction-blocker value="1"/>
        <ignore-route-errors value="true"/>
        <time-to-teleport value="-1"/>
    </processing>

    <report>
        <log value="C:/Users/fabio/Desktop/sumo_log.txt"/>
        <no-step-log value="true"/>
    </report>

    <emissions>
        <phemlight-path value="configs\./PHEMlight/"/>
    </emissions>

    <traci_server>
        <remote-port value="60299"/>
    </traci_server>

</sumoConfiguration>
-->

<tripinfos xmlns:xsi="http://www.w3.org/2001/XMLSchema-instance" xsi:noNamespaceSchemaLocation="http://sumo.dlr.de/xsd/tripinfo_file.xsd">
    <tripinfo id="0" depart="2.00" departLane="a153_0" departPos="5.10" departSpeed="0.00" departDelay="0.80" arrival="331.00" arrivalLane="b4[1][1][1]_0" arrivalPos="171.54" arrivalSpeed="14.10" duration="329.00" routeLength="2686.56" waitingTime="87.00" waitingCount="7" stopTime="0.00" timeLoss="142.76" rerouteNo="0" devices="vehroute_0 tripinfo_0 fcd_0" vType="DEFAULT_VEHTYPE" speedFactor="1.06" vaporized=""/>
    <tripinfo id="3" depart="154.00" departLane="a8_0" departPos="5.10" departSpeed="0.00" departDelay="0.52" arrival="372.00" arrivalLane="b9_0" arrivalPos="340.87" arrivalSpeed="14.51" duration="218.00" routeLength="2670.40" waitingTime="12.00" waitingCount="1" stopTime="0.00" timeLoss="37.71" rerouteNo="0" devices="vehroute_3 tripinfo_3 fcd_3" vType="DEFAULT_VEHTYPE" speedFactor="1.08" vaporized=""/>
    <tripinfo id="2" depart="137.00" departLane="a153_0" departPos="5.10" departSpeed="0.00" departDelay="0.12" arrival="472.00" arrivalLane="b4[1][1][1]_0" arrivalPos="171.54" arrivalSpeed="13.36" duration="335.00" routeLength="2686.56" waitingTime="84.00" waitingCount="4" stopTime="0.00" timeLoss="138.17" rerouteNo="0" devices="vehroute_2 tripinfo_2 fcd_2" vType="DEFAULT_VEHTYPE" speedFactor="1.01" vaporized=""/>
    <tripinfo id="1" depart="64.00" departLane="a153_0" departPos="5.10" departSpeed="0.00" departDelay="0.32" arrival="475.00" arrivalLane="b4[1][1][1]_0" arrivalPos="171.54" arrivalSpeed="12.86" duration="411.00" routeLength="2686.56" waitingTime="146.00" waitingCount="6" stopTime="0.00" timeLoss="200.09" rerouteNo="0" devices="vehroute_1 tripinfo_1 fcd_1" vType="DEFAULT_VEHTYPE" speedFactor="0.94" vaporized=""/>
    <tripinfo id="4" depart="173.00" departLane="a8_0" departPos="5.10" departSpeed="0.00" departDelay="0.81" arrival="505.00" arrivalLane="b9_0" arrivalPos="340.87" arrivalSpeed="13.46" duration="332.00" routeLength="2670.40" waitingTime="108.00" waitingCount="3" stopTime="0.00" timeLoss="142.02" rerouteNo="0" devices="vehroute_4 tripinfo_4 fcd_4" vType="DEFAULT_VEHTYPE" speedFactor="1.03" vaporized=""/>
    <tripinfo id="5" depart="233.00" departLane="a8_0" departPos="5.10" departSpeed="0.00" departDelay="0.38" arrival="531.00" arrivalLane="b9_0" arrivalPos="340.87" arrivalSpeed="10.87" duration="298.00" routeLength="2670.40" waitingTime="30.00" waitingCount="2" stopTime="0.00" timeLoss="62.51" rerouteNo="0" devices="vehroute_5 tripinfo_5 fcd_5" vType="DEFAULT_VEHTYPE" speedFactor="0.83" vaporized=""/>
    <tripinfo id="6" depart="269.00" departLane="a153_0" departPos="5.10" departSpeed="0.00" departDelay="0.33" arrival="609.00" arrivalLane="b4[1][1][1]_0" arrivalPos="171.54" arrivalSpeed="14.23" duration="340.00" routeLength="2686.56" waitingTime="98.00" waitingCount="6" stopTime="0.00" timeLoss="150.94" rerouteNo="0" devices="vehroute_6 tripinfo_6 fcd_6" vType="DEFAULT_VEHTYPE" speedFactor="1.05" vaporized=""/>
    <tripinfo id="8" depart="288.00" departLane="a153_0" departPos="5.10" departSpeed="0.00" departDelay="0.12" arrival="613.00" arrivalLane="b4[1][1][1]_0" arrivalPos="171.54" arrivalSpeed="12.91" duration="325.00" routeLength="2686.56" waitingTime="60.00" waitingCount="4" stopTime="0.00" timeLoss="113.85" rerouteNo="0" devices="vehroute_8 tripinfo_8 fcd_8" vType="DEFAULT_VEHTYPE" speedFactor="0.94" vaporized=""/>
    <tripinfo id="7" depart="276.00" departLane="a153_0" departPos="5.10" departSpeed="0.00" departDelay="0.90" arrival="616.00" arrivalLane="b4[1][1][1]_0" arrivalPos="171.54" arrivalSpeed="11.84" duration="340.00" routeLength="2686.56" waitingTime="64.00" waitingCount="5" stopTime="0.00" timeLoss="116.13" rerouteNo="0" devices="vehroute_7 tripinfo_7 fcd_7" vType="DEFAULT_VEHTYPE" speedFactor="0.89" vaporized=""/>
    <tripinfo id="10" depart="381.00" departLane="a153_0" departPos="5.10" departSpeed="0.00" departDelay="0.50" arrival="735.00" arrivalLane="b4[1][1][1]_0" arrivalPos="171.54" arrivalSpeed="14.65" duration="354.00" routeLength="2686.56" waitingTime="93.00" waitingCount="4" stopTime="0.00" timeLoss="172.36" rerouteNo="0" devices="vehroute_10 tripinfo_10 fcd_10" vType="DEFAULT_VEHTYPE" speedFactor="1.09" vaporized=""/>
    <tripinfo id="9" depart="368.00" departLane="a153_0" departPos="5.10" departSpeed="0.00" departDelay="0.26" arrival="741.00" arrivalLane="b4[1][1][1]_0" arrivalPos="171.54" arrivalSpeed="11.09" duration="373.00" routeLength="2686.56" waitingTime="89.00" waitingCount="5" stopTime="0.00" timeLoss="142.18" rerouteNo="0" devices="vehroute_9 tripinfo_9 fcd_9" vType="DEFAULT_VEHTYPE" speedFactor="0.86" vaporized=""/>
    <tripinfo id="12" depart="458.00" departLane="a8_0" departPos="5.10" departSpeed="0.00" departDelay="0.08" arrival="768.00" arrivalLane="b9_0" arrivalPos="340.87" arrivalSpeed="14.04" duration="310.00" routeLength="2670.40" waitingTime="86.00" waitingCount="4" stopTime="0.00" timeLoss="123.57" rerouteNo="0" devices="vehroute_12 tripinfo_12 fcd_12" vType="DEFAULT_VEHTYPE" speedFactor="1.05" vaporized=""/>
    <tripinfo id="13" depart="480.00" departLane="a153_0" departPos="5.10" departSpeed="0.00" departDelay="0.68" arrival="835.00" arrivalLane="b4[1][1][1]_0" arrivalPos="171.54" arrivalSpeed="15.09" duration="355.00" routeLength="2686.56" waitingTime="119.00" waitingCount="4" stopTime="0.00" timeLoss="178.09" rerouteNo="0" devices="vehroute_13 tripinfo_13 fcd_13" vType="DEFAULT_VEHTYPE" speedFactor="1.12" vaporized=""/>
    <tripinfo id="11" depart="440.00" departLane="a153_0" departPos="5.10" departSpeed="0.00" departDelay="0.67" arrival="838.00" arrivalLane="b4[1][1][1]_0" arrivalPos="171.54" arrivalSpeed="14.06" duration="398.00" routeLength="2686.56" waitingTime="156.00" waitingCount="6" stopTime="0.00" timeLoss="206.17" rerouteNo="0" devices="vehroute_11 tripinfo_11 fcd_11" vType="DEFAULT_VEHTYPE" speedFactor="1.03" vaporized=""/>
    <tripinfo id="14" depart="483.00" departLane="a153_0" departPos="5.10" departSpeed="0.00" departDelay="1.31" arrival="866.00" arrivalLane="b4[1][1][1]_0" arrivalPos="171.54" arrivalSpeed="12.90" duration="383.00" routeLength="2686.56" waitingTime="125.00" waitingCount="5" stopTime="0.00" timeLoss="183.93" rerouteNo="0" devices="vehroute_14 tripinfo_14 fcd_14" vType="DEFAULT_VEHTYPE" speedFactor="0.99" vaporized=""/>
    <tripinfo id="15" depart="538.00" departLane="a8_0" departPos="5.10" departSpeed="0.00" departDelay="0.74" arrival="894.00" arrivalLane="b9_0" arrivalPos="340.87" arrivalSpeed="11.75" duration="356.00" routeLength="2670.40" waitingTime="102.00" waitingCount="4" stopTime="0.00" timeLoss="145.80" rerouteNo="0" devices="vehroute_15 tripinfo_15 fcd_15" vType="DEFAULT_VEHTYPE" speedFactor="0.93" vaporized=""/>
    <tripinfo id="17" depart="626.00" departLane="a153_0" departPos="5.10" departSpeed="0.00" departDelay="0.49" arrival="975.00" arrivalLane="b4[1][1][1]_0" arrivalPos="171.54" arrivalSpeed="11.78" duration="349.00" routeLength="2686.56" waitingTime="76.00" waitingCount="4" stopTime="0.00" timeLoss="138.99" rerouteNo="0" devices="vehroute_17 tripinfo_17 fcd_17" vType="DEFAULT_VEHTYPE" speedFactor="0.94" vaporized=""/>
    <tripinfo id="16" depart="615.00" departLane="a153_0" departPos="5.10" departSpeed="0.00" departDelay="0.61" arrival="979.00" arrivalLane="b4[1][1][1]_0" arrivalPos="171.54" arrivalSpeed="11.15" duration="364.00" routeLength="2686.56" waitingTime="87.00" waitingCount="5" stopTime="0.00" timeLoss="138.99" rerouteNo="0" devices="vehroute_16 tripinfo_16 fcd_16" vType="DEFAULT_VEHTYPE" speedFactor="0.88" vaporized=""/>
    <tripinfo id="20" depart="683.00" departLane="a8_0" departPos="5.10" departSpeed="0.00" departDelay="0.10" arrival="1008.00" arrivalLane="b9_0" arrivalPos="340.87" arrivalSpeed="13.48" duration="325.00" routeLength="2670.40" waitingTime="89.00" waitingCount="4" stopTime="0.00" timeLoss="133.25" rerouteNo="0" devices="vehroute_20 tripinfo_20 fcd_20" vType="DEFAULT_VEHTYPE" speedFactor="1.02" vaporized=""/>
    <tripinfo id="21" depart="691.00" departLane="a8_0" departPos="5.10" departSpeed="0.00" departDelay="0.58" arrival="1010.00" arrivalLane="b9_0" arrivalPos="340.87" arrivalSpeed="12.98" duration="319.00" routeLength="2670.40" waitingTime="81.00" waitingCount="4" stopTime="0.00" timeLoss="125.99" rerouteNo="0" devices="vehroute_21 tripinfo_21 fcd_21" vType="DEFAULT_VEHTYPE" speedFactor="1.01" vaporized=""/>
    <tripinfo id="19" depart="640.00" departLane="a153_0" departPos="5.10" departSpeed="0.00" departDelay="0.04" arrival="1048.00" arrivalLane="b4[1][1][1]_0" arrivalPos="171.54" arrivalSpeed="15.27" duration="408.00" routeLength="2686.56" waitingTime="140.00" waitingCount="5" stopTime="0.00" timeLoss="235.95" rerouteNo="0" devices="vehroute_19 tripinfo_19 fcd_19" vType="DEFAULT_VEHTYPE" speedFactor="1.16" vaporized=""/>
    <tripinfo id="18" depart="637.00" departLane="a153_0" departPos="5.10" departSpeed="0.00" departDelay="0.21" arrival="1053.00" arrivalLane="b4[1][1][1]_0" arrivalPos="171.54" arrivalSpeed="12.51" duration="416.00" routeLength="2686.56" waitingTime="137.00" waitingCount="5" stopTime="0.00" timeLoss="203.82" rerouteNo="0" devices="vehroute_18 tripinfo_18 fcd_18" vType="DEFAULT_VEHTYPE" speedFactor="0.94" vaporized=""/>
    <tripinfo id="22" depart="716.00" departLane="a153_0" departPos="5.10" departSpeed="0.00" departDelay="0.12" arrival="1057.00" arrivalLane="b4[1][1][1]_0" arrivalPos="171.54" arrivalSpeed="13.50" duration="341.00" routeLength="2686.56" waitingTime="90.00" waitingCount="5" stopTime="0.00" timeLoss="136.98" rerouteNo="0" devices="vehroute_22 tripinfo_22 fcd_22" vType="DEFAULT_VEHTYPE" speedFactor="0.97" vaporized=""/>
    <tripinfo id="25" depart="818.00" departLane="a8_0" departPos="5.10" departSpeed="0.00" departDelay="0.93" arrival="1142.00" arrivalLane="b9_0" arrivalPos="340.87" arrivalSpeed="12.10" duration="324.00" routeLength="2670.40" waitingTime="60.00" waitingCount="4" stopTime="0.00" timeLoss="100.47" rerouteNo="0" devices="vehroute_25 tripinfo_25 fcd_25" vType="DEFAULT_VEHTYPE" speedFactor="0.87" vaporized=""/>
    <tripinfo id="27" depart="838.00" departLane="a8_0" departPos="5.10" departSpeed="0.00" departDelay="0.82" arrival="1144.00" arrivalLane="b9_0" arrivalPos="340.87" arrivalSpeed="12.70" duration="306.00" routeLength="2670.40" waitingTime="48.00" waitingCount="2" stopTime="0.00" timeLoss="99.50" rerouteNo="0" devices="vehroute_27 tripinfo_27 fcd_27" vType="DEFAULT_VEHTYPE" speedFactor="0.95" vaporized=""/>
    <tripinfo id="29" depart="877.00" departLane="a8_0" departPos="5.10" departSpeed="0.00" departDelay="0.48" arrival="1146.00" arrivalLane="b9_0" arrivalPos="340.87" arrivalSpeed="11.95" duration="269.00" routeLength="2670.40" waitingTime="17.00" waitingCount="1" stopTime="0.00" timeLoss="59.18" rerouteNo="0" devices="vehroute_29 tripinfo_29 fcd_29" vType="DEFAULT_VEHTYPE" speedFactor="0.93" vaporized=""/>
    <tripinfo id="23" depart="763.00" departLane="a153_0" departPos="5.10" departSpeed="0.00" departDelay="0.68" arrival="1222.00" arrivalLane="b4[1][1][1]_0" arrivalPos="171.54" arrivalSpeed="12.26" duration="459.00" routeLength="2686.56" waitingTime="183.00" waitingCount="6" stopTime="0.00" timeLoss="237.63" rerouteNo="0" devices="vehroute_23 tripinfo_23 fcd_23" vType="DEFAULT_VEHTYPE" speedFactor="0.89" vaporized=""/>
    <tripinfo id="31" depart="912.00" departLane="a153_0" departPos="5.10" departSpeed="0.00" departDelay="0.99" arrival="1224.00" arrivalLane="b4[1][1][1]_0" arrivalPos="171.54" arrivalSpeed="15.75" duration="312.00" routeLength="2686.56" waitingTime="56.00" waitingCount="6" stopTime="0.00" timeLoss="140.71" rerouteNo="0" devices="vehroute_31 tripinfo_31 fcd_31" vType="DEFAULT_VEHTYPE" speedFactor="1.15" vaporized=""/>
    <tripinfo id="28" depart="838.00" departLane="a153_0" departPos="5.10" departSpeed="0.00" departDelay="0.48" arrival="1226.00" arrivalLane="b4[1][1][1]_0" arrivalPos="171.54" arrivalSpeed="14.89" duration="388.00" routeLength="2686.56" waitingTime="115.00" waitingCount="5" stopTime="0.00" timeLoss="212.67" rerouteNo="0" devices="vehroute_28 tripinfo_28 fcd_28" vType="DEFAULT_VEHTYPE" speedFactor="1.13" vaporized=""/>
    <tripinfo id="26" depart="825.00" departLane="a153_0" departPos="5.10" departSpeed="0.00" departDelay="0.98" arrival="1229.00" arrivalLane="b4[1][1][1]_0" arrivalPos="171.54" arrivalSpeed="12.61" duration="404.00" routeLength="2686.56" waitingTime="119.00" waitingCount="6" stopTime="0.00" timeLoss="187.57" rerouteNo="0" devices="vehroute_26 tripinfo_26 fcd_26" vType="DEFAULT_VEHTYPE" speedFactor="0.92" vaporized=""/>
    <tripinfo id="24" depart="795.00" departLane="a153_0" departPos="5.10" departSpeed="0.00" departDelay="0.11" arrival="1233.00" arrivalLane="b4[1][1][1]_0" arrivalPos="171.54" arrivalSpeed="11.37" duration="438.00" routeLength="2686.56" waitingTime="136.00" waitingCount="7" stopTime="0.00" timeLoss="197.20" rerouteNo="0" devices="vehroute_24 tripinfo_24 fcd_24" vType="DEFAULT_VEHTYPE" speedFactor="0.83" vaporized=""/>
    <tripinfo id="30" depart="895.00" departLane="a8_0" departPos="5.10" departSpeed="0.00" departDelay="0.11" arrival="1252.00" arrivalLane="b9_0" arrivalPos="340.87" arrivalSpeed="15.64" duration="357.00" routeLength="2670.40" waitingTime="147.00" waitingCount="5" stopTime="0.00" timeLoss="191.30" rerouteNo="0" devices="vehroute_30 tripinfo_30 fcd_30" vType="DEFAULT_VEHTYPE" speedFactor="1.18" vaporized=""/>
    <tripinfo id="33" depart="959.00" departLane="a153_0" departPos="5.10" departSpeed="0.00" departDelay="1.94" arrival="1327.00" arrivalLane="b4[1][1][1]_0" arrivalPos="171.54" arrivalSpeed="15.35" duration="368.00" routeLength="2686.56" waitingTime="126.00" waitingCount="6" stopTime="0.00" timeLoss="198.91" rerouteNo="0" devices="vehroute_33 tripinfo_33 fcd_33" vType="DEFAULT_VEHTYPE" speedFactor="1.17" vaporized=""/>
    <tripinfo id="32" depart="956.00" departLane="a153_0" departPos="5.10" departSpeed="0.00" departDelay="0.61" arrival="1330.00" arrivalLane="b4[1][1][1]_0" arrivalPos="171.54" arrivalSpeed="13.81" duration="374.00" routeLength="2686.56" waitingTime="123.00" waitingCount="6" stopTime="0.00" timeLoss="177.26" rerouteNo="0" devices="vehroute_32 tripinfo_32 fcd_32" vType="DEFAULT_VEHTYPE" speedFactor="1.01" vaporized=""/>
    <tripinfo id="34" depart="962.00" departLane="a153_0" departPos="5.10" departSpeed="0.00" departDelay="4.33" arrival="1333.00" arrivalLane="b4[1][1][1]_0" arrivalPos="171.54" arrivalSpeed="13.56" duration="371.00" routeLength="2686.56" waitingTime="107.00" waitingCount="5" stopTime="0.00" timeLoss="170.97" rerouteNo="0" devices="vehroute_34 tripinfo_34 fcd_34" vType="DEFAULT_VEHTYPE" speedFactor="0.99" vaporized=""/>
    <tripinfo id="35" depart="1000.00" departLane="a153_0" departPos="5.10" departSpeed="0.00" departDelay="0.09" arrival="1334.00" arrivalLane="b4[1][1][1]_0" arrivalPos="171.54" arrivalSpeed="13.89" duration="334.00" routeLength="2686.56" waitingTime="64.00" waitingCount="5" stopTime="0.00" timeLoss="140.20" rerouteNo="0" devices="vehroute_35 tripinfo_35 fcd_35" vType="DEFAULT_VEHTYPE" speedFactor="1.02" vaporized=""/>
    <tripinfo id="36" depart="1006.00" departLane="a153_0" departPos="5.10" departSpeed="0.00" departDelay="0.28" arrival="1338.00" arrivalLane="b4[1][1][1]_0" arrivalPos="171.54" arrivalSpeed="12.70" duration="332.00" routeLength="2686.56" waitingTime="53.00" waitingCount="4" stopTime="0.00" timeLoss="128.44" rerouteNo="0" devices="vehroute_36 tripinfo_36 fcd_36" vType="DEFAULT_VEHTYPE" speedFactor="0.97" vaporized=""/>
    <tripinfo id="37" depart="1071.00" departLane="a153_0" departPos="5.10" departSpeed="0.00" departDelay="0.52" arrival="1455.00" arrivalLane="b4[1][1][1]_0" arrivalPos="171.54" arrivalSpeed="15.33" duration="384.00" routeLength="2686.56" waitingTime="149.00" waitingCount="8" stopTime="0.00" timeLoss="216.49" rerouteNo="0" devices="vehroute_37 tripinfo_37 fcd_37" vType="DEFAULT_VEHTYPE" speedFactor="1.18" vaporized=""/>
    <tripinfo id="38" depart="1165.00" departLane="a153_0" departPos="5.10" departSpeed="0.00" departDelay="0.40" arrival="1589.00" arrivalLane="b4[1][1][1]_0" arrivalPos="171.54" arrivalSpeed="14.01" duration="424.00" routeLength="2686.56" waitingTime="193.00" waitingCount="7" stopTime="0.00" timeLoss="245.45" rerouteNo="0" devices="vehroute_38 tripinfo_38 fcd_38" vType="DEFAULT_VEHTYPE" speedFactor="1.10" vaporized=""/>
    <tripinfo id="39" depart="1276.00" departLane="a8_0" departPos="5.10" departSpeed="0.00" departDelay="0.75" arrival="1639.00" arrivalLane="b9_0" arrivalPos="340.87" arrivalSpeed="11.90" duration="363.00" routeLength="2670.40" waitingTime="108.00" waitingCount="4" stopTime="0.00" timeLoss="146.86" rerouteNo="0" devices="vehroute_39 tripinfo_39 fcd_39" vType="DEFAULT_VEHTYPE" speedFactor="0.90" vaporized=""/>
    <tripinfo id="42" depart="1391.00" departLane="a8_0" departPos="5.10" departSpeed="0.00" departDelay="0.14" arrival="1641.00" arrivalLane="b9_0" arrivalPos="340.87" arrivalSpeed="14.89" duration="250.00" routeLength="2670.40" waitingTime="12.00" waitingCount="2" stopTime="0.00" timeLoss="71.24" rerouteNo="0" devices="vehroute_42 tripinfo_42 fcd_42" vType="DEFAULT_VEHTYPE" speedFactor="1.09" vaporized=""/>
    <tripinfo id="44" depart="1394.00" departLane="a8_0" departPos="5.10" departSpeed="0.00" departDelay="0.52" arrival="1642.00" arrivalLane="b9_0" arrivalPos="340.87" arrivalSpeed="14.02" duration="248.00" routeLength="2670.40" waitingTime="3.00" waitingCount="1" stopTime="0.00" timeLoss="61.36" rerouteNo="0" devices="vehroute_44 tripinfo_44 fcd_44" vType="DEFAULT_VEHTYPE" speedFactor="1.04" vaporized=""/>
    <tripinfo id="40" depart="1314.00" departLane="a153_0" departPos="5.10" departSpeed="0.00" departDelay="0.73" arrival="1727.00" arrivalLane="b4[1][1][1]_0" arrivalPos="171.54" arrivalSpeed="13.41" duration="413.00" routeLength="2686.56" waitingTime="164.00" waitingCount="7" stopTime="0.00" timeLoss="220.99" rerouteNo="0" devices="vehroute_40 tripinfo_40 fcd_40" vType="DEFAULT_VEHTYPE" speedFactor="1.03" vaporized=""/>
    <tripinfo id="43" depart="1392.00" departLane="a153_0" departPos="5.10" departSpeed="0.00" departDelay="0.74" arrival="1729.00" arrivalLane="b4[1][1][1]_0" arrivalPos="171.54" arrivalSpeed="14.14" duration="337.00" routeLength="2686.56" waitingTime="82.00" waitingCount="5" stopTime="0.00" timeLoss="146.23" rerouteNo="0" devices="vehroute_43 tripinfo_43 fcd_43" vType="DEFAULT_VEHTYPE" speedFactor="1.04" vaporized=""/>
    <tripinfo id="41" depart="1338.00" departLane="a153_0" departPos="5.10" departSpeed="0.00" departDelay="0.93" arrival="1732.00" arrivalLane="b4[1][1][1]_0" arrivalPos="171.54" arrivalSpeed="12.49" duration="394.00" routeLength="2686.56" waitingTime="140.00" waitingCount="4" stopTime="0.00" timeLoss="187.06" rerouteNo="0" devices="vehroute_41 tripinfo_41 fcd_41" vType="DEFAULT_VEHTYPE" speedFactor="0.96" vaporized=""/>
    <tripinfo id="45" depart="1413.00" departLane="a153_0" departPos="5.10" departSpeed="0.00" departDelay="0.38" arrival="1734.00" arrivalLane="b4[1][1][1]_0" arrivalPos="171.54" arrivalSpeed="14.33" duration="321.00" routeLength="2686.56" waitingTime="61.00" waitingCount="5" stopTime="0.00" timeLoss="138.66" rerouteNo="0" devices="vehroute_45 tripinfo_45 fcd_45" vType="DEFAULT_VEHTYPE" speedFactor="1.09" vaporized=""/>
    <tripinfo id="46" depart="1458.00" departLane="a153_0" departPos="5.10" departSpeed="0.00" departDelay="0.73" arrival="1861.00" arrivalLane="b4[1][1][1]_0" arrivalPos="171.54" arrivalSpeed="13.00" duration="403.00" routeLength="2686.56" waitingTime="150.00" waitingCount="7" stopTime="0.00" timeLoss="204.64" rerouteNo="0" devices="vehroute_46 tripinfo_46 fcd_46" vType="DEFAULT_VEHTYPE" speedFactor="1.00" vaporized=""/>
    <tripinfo id="47" depart="1507.00" departLane="a153_0" departPos="5.10" departSpeed="0.00" departDelay="0.11" arrival="1865.00" arrivalLane="b4[1][1][1]_0" arrivalPos="171.54" arrivalSpeed="12.16" duration="358.00" routeLength="2686.56" waitingTime="82.00" waitingCount="4" stopTime="0.00" timeLoss="137.71" rerouteNo="0" devices="vehroute_47 tripinfo_47 fcd_47" vType="DEFAULT_VEHTYPE" speedFactor="0.90" vaporized=""/>
    <tripinfo id="51" depart="1623.00" departLane="a153_0" departPos="5.10" departSpeed="0.00" departDelay="0.77" arrival="1990.00" arrivalLane="b4[1][1][1]_0" arrivalPos="171.54" arrivalSpeed="16.19" duration="367.00" routeLength="2686.56" waitingTime="112.00" waitingCount="5" stopTime="0.00" timeLoss="197.76" rerouteNo="0" devices="vehroute_51 tripinfo_51 fcd_51" vType="DEFAULT_VEHTYPE" speedFactor="1.17" vaporized=""/>
    <tripinfo id="48" depart="1550.00" departLane="a153_0" departPos="5.10" departSpeed="0.00" departDelay="0.79" arrival="1995.00" arrivalLane="b4[1][1][1]_0" arrivalPos="171.54" arrivalSpeed="11.59" duration="445.00" routeLength="2686.56" waitingTime="163.00" waitingCount="6" stopTime="0.00" timeLoss="219.65" rerouteNo="0" devices="vehroute_48 tripinfo_48 fcd_48" vType="DEFAULT_VEHTYPE" speedFactor="0.88" vaporized=""/>
    <tripinfo id="49" depart="1596.00" departLane="a153_0" departPos="5.10" departSpeed="0.00" departDelay="0.22" arrival="1999.00" arrivalLane="b4[1][1][1]_0" arrivalPos="171.54" arrivalSpeed="10.73" duration="403.00" routeLength="2686.56" waitingTime="106.00" waitingCount="6" stopTime="0.00" timeLoss="170.93" rerouteNo="0" devices="vehroute_49 tripinfo_49 fcd_49" vType="DEFAULT_VEHTYPE" speedFactor="0.85" vaporized=""/>
    <tripinfo id="50" depart="1621.00" departLane="a8_0" departPos="5.10" departSpeed="0.00" departDelay="0.55" arrival="2030.00" arrivalLane="b9_0" arrivalPos="340.87" arrivalSpeed="11.58" duration="409.00" routeLength="2670.40" waitingTime="134.00" waitingCount="5" stopTime="0.00" timeLoss="181.10" rerouteNo="0" devices="vehroute_50 tripinfo_50 fcd_50" vType="DEFAULT_VEHTYPE" speedFactor="0.85" vaporized=""/>
    <tripinfo id="53" depart="1734.00" departLane="a153_0" departPos="5.10" departSpeed="0.00" departDelay="0.11" arrival="2068.00" arrivalLane="b4[1][1][1]_0" arrivalPos="171.54" arrivalSpeed="14.19" duration="334.00" routeLength="2686.56" waitingTime="92.00" waitingCount="5" stopTime="0.00" timeLoss="152.54" rerouteNo="0" devices="vehroute_53 tripinfo_53 fcd_53" vType="DEFAULT_VEHTYPE" speedFactor="1.10" vaporized=""/>
    <tripinfo id="52" depart="1722.00" departLane="a153_0" departPos="5.10" departSpeed="0.00" departDelay="0.36" arrival="2071.00" arrivalLane="b4[1][1][1]_0" arrivalPos="171.54" arrivalSpeed="14.04" duration="349.00" routeLength="2686.56" waitingTime="100.00" waitingCount="6" stopTime="0.00" timeLoss="155.06" rerouteNo="0" devices="vehroute_52 tripinfo_52 fcd_52" vType="DEFAULT_VEHTYPE" speedFactor="1.02" vaporized=""/>
    <tripinfo id="54" depart="1745.00" departLane="a153_0" departPos="5.10" departSpeed="0.00" departDelay="0.43" arrival="2092.00" arrivalLane="b4[1][1][1]_0" arrivalPos="171.54" arrivalSpeed="12.82" duration="347.00" routeLength="2686.56" waitingTime="92.00" waitingCount="4" stopTime="0.00" timeLoss="148.71" rerouteNo="0" devices="vehroute_54 tripinfo_54 fcd_54" vType="DEFAULT_VEHTYPE" speedFactor="1.00" vaporized=""/>
    <tripinfo id="57" depart="1822.00" departLane="a153_0" departPos="5.10" departSpeed="0.00" departDelay="0.01" arrival="2194.00" arrivalLane="b4[1][1][1]_0" arrivalPos="171.54" arrivalSpeed="15.06" duration="372.00" routeLength="2686.56" waitingTime="118.00" waitingCount="5" stopTime="0.00" timeLoss="198.05" rerouteNo="0" devices="vehroute_57 tripinfo_57 fcd_57" vType="DEFAULT_VEHTYPE" speedFactor="1.14" vaporized=""/>
    <tripinfo id="55" depart="1784.00" departLane="a153_0" departPos="5.10" departSpeed="0.00" departDelay="0.37" arrival="2197.00" arrivalLane="b4[1][1][1]_0" arrivalPos="171.54" arrivalSpeed="13.36" duration="413.00" routeLength="2686.56" waitingTime="161.00" waitingCount="6" stopTime="0.00" timeLoss="214.20" rerouteNo="0" devices="vehroute_55 tripinfo_55 fcd_55" vType="DEFAULT_VEHTYPE" speedFactor="1.00" vaporized=""/>
    <tripinfo id="58" depart="1892.00" departLane="a8_0" departPos="5.10" departSpeed="0.00" departDelay="0.18" arrival="2242.00" arrivalLane="b9_0" arrivalPos="340.87" arrivalSpeed="13.83" duration="350.00" routeLength="2670.40" waitingTime="113.00" waitingCount="5" stopTime="0.00" timeLoss="159.64" rerouteNo="0" devices="vehroute_58 tripinfo_58 fcd_58" vType="DEFAULT_VEHTYPE" speedFactor="1.02" vaporized=""/>
    <tripinfo id="56" depart="1798.00" departLane="a153_0" departPos="5.10" departSpeed="0.00" departDelay="0.40" arrival="2285.00" arrivalLane="b4[1][1][1]_0" arrivalPos="171.54" arrivalSpeed="11.81" duration="487.00" routeLength="2686.56" waitingTime="206.00" waitingCount="7" stopTime="0.00" timeLoss="266.63" rerouteNo="0" devices="vehroute_56 tripinfo_56 fcd_56" vType="DEFAULT_VEHTYPE" speedFactor="0.90" vaporized=""/>
    <tripinfo id="60" depart="2096.00" departLane="a153_0" departPos="5.10" departSpeed="0.00" departDelay="0.27" arrival="2439.00" arrivalLane="b4[1][1][1]_0" arrivalPos="171.54" arrivalSpeed="14.00" duration="343.00" routeLength="2686.56" waitingTime="99.00" waitingCount="4" stopTime="0.00" timeLoss="159.39" rerouteNo="0" devices="vehroute_60 tripinfo_60 fcd_60" vType="DEFAULT_VEHTYPE" speedFactor="1.08" vaporized=""/>
    <tripinfo id="61" depart="2140.00" departLane="a153_0" departPos="5.10" departSpeed="0.00" departDelay="0.55" arrival="2440.00" arrivalLane="b4[1][1][1]_0" arrivalPos="171.54" arrivalSpeed="14.87" duration="300.00" routeLength="2686.56" waitingTime="72.00" waitingCount="3" stopTime="0.00" timeLoss="123.39" rerouteNo="0" devices="vehroute_61 tripinfo_61 fcd_61" vType="DEFAULT_VEHTYPE" speedFactor="1.12" vaporized=""/>
    <tripinfo id="59" depart="2032.00" departLane="a153_0" departPos="5.10" departSpeed="0.00" departDelay="0.01" arrival="2445.00" arrivalLane="b4[1][1][1]_0" arrivalPos="171.54" arrivalSpeed="13.42" duration="413.00" routeLength="2686.56" waitingTime="153.00" waitingCount="6" stopTime="0.00" timeLoss="208.05" rerouteNo="0" devices="vehroute_59 tripinfo_59 fcd_59" vType="DEFAULT_VEHTYPE" speedFactor="0.97" vaporized=""/>
    <tripinfo id="66" depart="2231.00" departLane="a8_0" departPos="5.10" departSpeed="0.00" departDelay="0.81" arrival="2495.00" arrivalLane="b9_0" arrivalPos="340.87" arrivalSpeed="12.45" duration="264.00" routeLength="2670.40" waitingTime="15.00" waitingCount="3" stopTime="0.00" timeLoss="49.08" rerouteNo="0" devices="vehroute_66 tripinfo_66 fcd_66" vType="DEFAULT_VEHTYPE" speedFactor="0.91" vaporized=""/>
    <tripinfo id="62" depart="2170.00" departLane="a153_0" departPos="5.10" departSpeed="0.00" departDelay="0.81" arrival="2563.00" arrivalLane="b4[1][1][1]_0" arrivalPos="171.54" arrivalSpeed="13.82" duration="393.00" routeLength="2686.56" waitingTime="144.00" waitingCount="6" stopTime="0.00" timeLoss="197.70" rerouteNo="0" devices="vehroute_62 tripinfo_62 fcd_62" vType="DEFAULT_VEHTYPE" speedFactor="1.02" vaporized=""/>
    <tripinfo id="63" depart="2211.00" departLane="a153_0" departPos="5.10" departSpeed="0.00" departDelay="0.31" arrival="2565.00" arrivalLane="b4[1][1][1]_0" arrivalPos="171.54" arrivalSpeed="13.24" duration="354.00" routeLength="2686.56" waitingTime="97.00" waitingCount="5" stopTime="0.00" timeLoss="152.44" rerouteNo="0" devices="vehroute_63 tripinfo_63 fcd_63" vType="DEFAULT_VEHTYPE" speedFactor="0.99" vaporized=""/>
    <tripinfo id="64" depart="2225.00" departLane="a153_0" departPos="5.10" departSpeed="0.00" departDelay="0.01" arrival="2568.00" arrivalLane="b4[1][1][1]_0" arrivalPos="171.54" arrivalSpeed="11.95" duration="343.00" routeLength="2686.56" waitingTime="72.00" waitingCount="5" stopTime="0.00" timeLoss="132.04" rerouteNo="0" devices="vehroute_64 tripinfo_64 fcd_64" vType="DEFAULT_VEHTYPE" speedFactor="0.94" vaporized=""/>
    <tripinfo id="67" depart="2266.00" departLane="a153_0" departPos="5.10" departSpeed="0.00" departDelay="0.52" arrival="2571.00" arrivalLane="b4[1][1][1]_0" arrivalPos="171.54" arrivalSpeed="11.86" duration="305.00" routeLength="2686.56" waitingTime="18.00" waitingCount="2" stopTime="0.00" timeLoss="87.83" rerouteNo="0" devices="vehroute_67 tripinfo_67 fcd_67" vType="DEFAULT_VEHTYPE" speedFactor="0.91" vaporized=""/>