<?xml version="1.0" encoding="UTF-8"?>

<!-- generated on 2025-03-21 18:00:21 by Eclipse SUMO sumo Version 1.21.0
<sumoConfiguration xmlns:xsi="http://www.w3.org/2001/XMLSchema-instance" xsi:noNamespaceSchemaLocation="http://sumo.dlr.de/xsd/sumoConfiguration.xsd">

    <input>
        <net-file value="${STATICPATH}/joined_lanes.net.xml"/>
        <route-files value="${SIMULATIONPATH}/generatedRoutes.rou.xml"/>
        <additional-files value="${STATICPATH}/detectors.add.xml,${STATICPATH}/joined_vtypes.add.xml,${STATICPATH}/joined_tls.add.xml"/>
    </input>

    <output>
        <fcd-output value="${SIMULATIONPATH}/fcd.xml"/>
        <queue-output value="${SIMULATIONPATH}/queue.xml"/>
        <summary-output value="${SIMULATIONPATH}/summary.xml"/>
        <tripinfo-output value="${SIMULATIONPATH}/tripinfos.xml"/>
        <vehroute-output value="${SIMULATIONPATH}/vehroute.xml"/>
        <save-state.prefix value="configs\state"/>
    </output>

    <processing>
        <ignore-junction-blocker value="1"/>
        <ignore-route-errors value="true"/>
        <time-to-teleport value="-1"/>
    </processing>

    <report>
        <log value="C:/Users/fabio/Desktop/sumo_log.txt"/>
        <no-step-log value="true"/>
    </report>

    <emissions>
        <phemlight-path value="configs\./PHEMlight/"/>
    </emissions>

    <traci_server>
        <remote-port value="60268"/>
    </traci_server>

</sumoConfiguration>
-->

<tripinfos xmlns:xsi="http://www.w3.org/2001/XMLSchema-instance" xsi:noNamespaceSchemaLocation="http://sumo.dlr.de/xsd/tripinfo_file.xsd">
    <tripinfo id="0" depart="5.00" departLane="a122_0" departPos="5.10" departSpeed="0.00" departDelay="0.55" arrival="253.00" arrivalLane="b2[1][1][1]b_0" arrivalPos="325.74" arrivalSpeed="14.32" duration="248.00" routeLength="2661.65" waitingTime="36.00" waitingCount="3" stopTime="0.00" timeLoss="64.40" rerouteNo="0" devices="vehroute_0 tripinfo_0 fcd_0" vType="DEFAULT_VEHTYPE" speedFactor="1.06" vaporized=""/>
    <tripinfo id="1" depart="73.00" departLane="a210_0" departPos="5.10" departSpeed="0.00" departDelay="0.91" arrival="421.00" arrivalLane="b4[0]_0" arrivalPos="131.31" arrivalSpeed="12.97" duration="348.00" routeLength="2943.26" waitingTime="77.00" waitingCount="4" stopTime="0.00" timeLoss="119.32" rerouteNo="0" devices="vehroute_1 tripinfo_1 fcd_1" vType="DEFAULT_VEHTYPE" speedFactor="0.94" vaporized=""/>
    <tripinfo id="2" depart="83.00" departLane="a210_0" departPos="5.10" departSpeed="0.00" departDelay="0.58" arrival="422.00" arrivalLane="b4[0]_1" arrivalPos="131.31" arrivalSpeed="13.12" duration="339.00" routeLength="2930.71" waitingTime="73.00" waitingCount="4" stopTime="0.00" timeLoss="127.58" rerouteNo="0" devices="vehroute_2 tripinfo_2 fcd_2" vType="DEFAULT_VEHTYPE" speedFactor="1.01" vaporized=""/>
    <tripinfo id="4" depart="228.00" departLane="a122_0" departPos="5.10" departSpeed="0.00" departDelay="0.81" arrival="487.00" arrivalLane="b2[1][1][1]b_0" arrivalPos="325.74" arrivalSpeed="13.26" duration="259.00" routeLength="2657.16" waitingTime="41.00" waitingCount="2" stopTime="0.00" timeLoss="70.87" rerouteNo="0" devices="vehroute_4 tripinfo_4 fcd_4" vType="DEFAULT_VEHTYPE" speedFactor="1.03" vaporized=""/>
    <tripinfo id="3" depart="189.00" departLane="a210_0" departPos="5.10" departSpeed="0.00" departDelay="0.58" arrival="534.00" arrivalLane="b4[0]_0" arrivalPos="131.31" arrivalSpeed="14.52" duration="345.00" routeLength="2943.26" waitingTime="102.00" waitingCount="5" stopTime="0.00" timeLoss="146.58" rerouteNo="0" devices="vehroute_3 tripinfo_3 fcd_3" vType="DEFAULT_VEHTYPE" speedFactor="1.08" vaporized=""/>
    <tripinfo id="5" depart="252.00" departLane="a210_0" departPos="5.10" departSpeed="0.00" departDelay="0.25" arrival="559.00" arrivalLane="b4[0]_0" arrivalPos="131.31" arrivalSpeed="10.24" duration="307.00" routeLength="2943.26" waitingTime="16.00" waitingCount="2" stopTime="0.00" timeLoss="47.98" rerouteNo="0" devices="vehroute_5 tripinfo_5 fcd_5" vType="DEFAULT_VEHTYPE" speedFactor="0.83" vaporized=""/>
    <tripinfo id="6" depart="288.00" departLane="a210_0" departPos="5.10" departSpeed="0.00" departDelay="0.12" arrival="561.00" arrivalLane="b4[0]_0" arrivalPos="131.31" arrivalSpeed="13.84" duration="273.00" routeLength="2943.26" waitingTime="9.00" waitingCount="1" stopTime="0.00" timeLoss="66.92" rerouteNo="0" devices="vehroute_6 tripinfo_6 fcd_6" vType="DEFAULT_VEHTYPE" speedFactor="1.05" vaporized=""/>
    <tripinfo id="8" depart="335.00" departLane="a122_0" departPos="5.10" departSpeed="0.00" departDelay="0.46" arrival="628.00" arrivalLane="b2[1][1][1]b_0" arrivalPos="325.74" arrivalSpeed="11.96" duration="293.00" routeLength="2661.65" waitingTime="52.00" waitingCount="3" stopTime="0.00" timeLoss="85.97" rerouteNo="0" devices="vehroute_8 tripinfo_8 fcd_8" vType="DEFAULT_VEHTYPE" speedFactor="0.94" vaporized=""/>
    <tripinfo id="7" depart="320.00" departLane="a210_0" departPos="5.10" departSpeed="0.00" departDelay="0.44" arrival="672.00" arrivalLane="b4[0]_0" arrivalPos="131.31" arrivalSpeed="11.54" duration="352.00" routeLength="2943.26" waitingTime="70.00" waitingCount="3" stopTime="0.00" timeLoss="109.75" rerouteNo="0" devices="vehroute_7 tripinfo_7 fcd_7" vType="DEFAULT_VEHTYPE" speedFactor="0.89" vaporized=""/>
    <tripinfo id="10" depart="432.00" departLane="a210_0" departPos="5.10" departSpeed="0.00" departDelay="0.62" arrival="795.00" arrivalLane="b4[0]_1" arrivalPos="131.31" arrivalSpeed="14.82" duration="363.00" routeLength="2930.71" waitingTime="78.00" waitingCount="2" stopTime="0.00" timeLoss="165.98" rerouteNo="0" devices="vehroute_10 tripinfo_10 fcd_10" vType="DEFAULT_VEHTYPE" speedFactor="1.09" vaporized=""/>
    <tripinfo id="9" depart="424.00" departLane="a210_0" departPos="5.10" departSpeed="0.00" departDelay="0.46" arrival="798.00" arrivalLane="b4[0]_0" arrivalPos="131.31" arrivalSpeed="10.88" duration="374.00" routeLength="2943.26" waitingTime="79.00" waitingCount="2" stopTime="0.00" timeLoss="122.08" rerouteNo="0" devices="vehroute_9 tripinfo_9 fcd_9" vType="DEFAULT_VEHTYPE" speedFactor="0.86" vaporized=""/>
    <tripinfo id="11" depart="439.00" departLane="a210_0" departPos="5.10" departSpeed="0.00" departDelay="0.66" arrival="800.00" arrivalLane="b4[0]_0" arrivalPos="131.31" arrivalSpeed="14.22" duration="361.00" routeLength="2943.26" waitingTime="76.00" waitingCount="2" stopTime="0.00" timeLoss="150.92" rerouteNo="0" devices="vehroute_11 tripinfo_11 fcd_11" vType="DEFAULT_VEHTYPE" speedFactor="1.03" vaporized=""/>
    <tripinfo id="12" depart="502.00" departLane="a210_0" departPos="5.10" departSpeed="0.00" departDelay="0.89" arrival="802.00" arrivalLane="b4[0]_1" arrivalPos="131.31" arrivalSpeed="14.33" duration="300.00" routeLength="2930.71" waitingTime="34.00" waitingCount="2" stopTime="0.00" timeLoss="95.72" rerouteNo="0" devices="vehroute_12 tripinfo_12 fcd_12" vType="DEFAULT_VEHTYPE" speedFactor="1.05" vaporized=""/>
    <tripinfo id="13" depart="509.00" departLane="a210_0" departPos="5.10" departSpeed="0.00" departDelay="0.40" arrival="803.00" arrivalLane="b4[0]_0" arrivalPos="131.31" arrivalSpeed="14.91" duration="294.00" routeLength="2943.26" waitingTime="33.00" waitingCount="1" stopTime="0.00" timeLoss="101.22" rerouteNo="0" devices="vehroute_13 tripinfo_13 fcd_13" vType="DEFAULT_VEHTYPE" speedFactor="1.12" vaporized=""/>
    <tripinfo id="15" depart="574.00" departLane="a122_0" departPos="5.10" departSpeed="0.00" departDelay="0.51" arrival="863.00" arrivalLane="b2[1][1][1]b_0" arrivalPos="325.74" arrivalSpeed="12.64" duration="289.00" routeLength="2657.16" waitingTime="53.00" waitingCount="2" stopTime="0.00" timeLoss="80.41" rerouteNo="0" devices="vehroute_15 tripinfo_15 fcd_15" vType="DEFAULT_VEHTYPE" speedFactor="0.93" vaporized=""/>
    <tripinfo id="14" depart="554.00" departLane="a210_0" departPos="5.10" departSpeed="0.00" departDelay="0.35" arrival="908.00" arrivalLane="b4[0]_0" arrivalPos="131.31" arrivalSpeed="13.45" duration="354.00" routeLength="2943.26" waitingTime="96.00" waitingCount="4" stopTime="0.00" timeLoss="137.00" rerouteNo="0" devices="vehroute_14 tripinfo_14 fcd_14" vType="DEFAULT_VEHTYPE" speedFactor="0.99" vaporized=""/>
    <tripinfo id="16" depart="583.00" departLane="a210_0" departPos="5.10" departSpeed="0.00" departDelay="0.65" arrival="916.00" arrivalLane="b4[0]_0" arrivalPos="131.31" arrivalSpeed="11.05" duration="333.00" routeLength="2943.26" waitingTime="48.00" waitingCount="3" stopTime="0.00" timeLoss="87.34" rerouteNo="0" devices="vehroute_16 tripinfo_16 fcd_16" vType="DEFAULT_VEHTYPE" speedFactor="0.88" vaporized=""/>
    <tripinfo id="17" depart="614.00" departLane="a122_0" departPos="5.10" departSpeed="0.00" departDelay="0.28" arrival="985.00" arrivalLane="b2[1][1][1]b_0" arrivalPos="325.74" arrivalSpeed="12.70" duration="371.00" routeLength="2658.69" waitingTime="130.00" waitingCount="4" stopTime="0.00" timeLoss="165.52" rerouteNo="0" devices="vehroute_17 tripinfo_17 fcd_17" vType="DEFAULT_VEHTYPE" speedFactor="0.94" vaporized=""/>
    <tripinfo id="18" depart="686.00" departLane="a122_0" departPos="5.10" departSpeed="0.00" departDelay="0.83" arrival="986.00" arrivalLane="b2[1][1][1]b_0" arrivalPos="325.74" arrivalSpeed="11.71" duration="300.00" routeLength="2657.16" waitingTime="63.00" waitingCount="3" stopTime="0.00" timeLoss="92.60" rerouteNo="0" devices="vehroute_18 tripinfo_18 fcd_18" vType="DEFAULT_VEHTYPE" speedFactor="0.94" vaporized=""/>
    <tripinfo id="19" depart="764.00" departLane="a210_0" departPos="5.10" departSpeed="0.00" departDelay="0.86" arrival="1021.00" arrivalLane="b4[0]_0" arrivalPos="131.31" arrivalSpeed="15.66" duration="257.00" routeLength="2943.26" waitingTime="28.00" waitingCount="3" stopTime="0.00" timeLoss="71.65" rerouteNo="0" devices="vehroute_19 tripinfo_19 fcd_19" vType="DEFAULT_VEHTYPE" speedFactor="1.16" vaporized=""/>
    <tripinfo id="22" depart="831.00" departLane="a122_0" departPos="5.10" departSpeed="0.00" departDelay="0.01" arrival="1106.00" arrivalLane="b2[1][1][1]b_0" arrivalPos="325.74" arrivalSpeed="13.45" duration="275.00" routeLength="2657.16" waitingTime="50.00" waitingCount="2" stopTime="0.00" timeLoss="75.77" rerouteNo="0" devices="vehroute_22 tripinfo_22 fcd_22" vType="DEFAULT_VEHTYPE" speedFactor="0.97" vaporized=""/>
    <tripinfo id="23" depart="838.00" departLane="a122_0" departPos="5.10" departSpeed="0.00" departDelay="0.82" arrival="1115.00" arrivalLane="b2[1][1][1]b_0" arrivalPos="325.74" arrivalSpeed="12.32" duration="277.00" routeLength="2657.16" waitingTime="32.00" waitingCount="1" stopTime="0.00" timeLoss="59.15" rerouteNo="0" devices="vehroute_23 tripinfo_23 fcd_23" vType="DEFAULT_VEHTYPE" speedFactor="0.89" vaporized=""/>
    <tripinfo id="20" depart="806.00" departLane="a210_0" departPos="5.10" departSpeed="0.00" departDelay="0.99" arrival="1154.00" arrivalLane="b4[0]_0" arrivalPos="131.31" arrivalSpeed="13.70" duration="348.00" routeLength="2943.26" waitingTime="101.00" waitingCount="3" stopTime="0.00" timeLoss="135.87" rerouteNo="0" devices="vehroute_20 tripinfo_20 fcd_20" vType="DEFAULT_VEHTYPE" speedFactor="1.02" vaporized=""/>
    <tripinfo id="21" depart="819.00" departLane="a210_0" departPos="5.10" departSpeed="0.00" departDelay="0.51" arrival="1157.00" arrivalLane="b4[0]_0" arrivalPos="131.31" arrivalSpeed="13.76" duration="338.00" routeLength="2943.26" waitingTime="80.00" waitingCount="4" stopTime="0.00" timeLoss="124.81" rerouteNo="0" devices="vehroute_21 tripinfo_21 fcd_21" vType="DEFAULT_VEHTYPE" speedFactor="1.01" vaporized=""/>
    <tripinfo id="24" depart="861.00" departLane="a210_0" departPos="5.10" departSpeed="0.00" departDelay="0.40" arrival="1170.00" arrivalLane="b4[0]_0" arrivalPos="131.31" arrivalSpeed="11.08" duration="309.00" routeLength="2943.26" waitingTime="13.00" waitingCount="1" stopTime="0.00" timeLoss="47.70" rerouteNo="0" devices="vehroute_24 tripinfo_24 fcd_24" vType="DEFAULT_VEHTYPE" speedFactor="0.83" vaporized=""/>
    <tripinfo id="25" depart="878.00" departLane="a210_0" departPos="5.10" departSpeed="0.00" departDelay="0.84" arrival="1171.00" arrivalLane="b4[0]_1" arrivalPos="131.31" arrivalSpeed="11.14" duration="293.00" routeLength="2930.71" waitingTime="5.00" waitingCount="1" stopTime="0.00" timeLoss="46.84" rerouteNo="0" devices="vehroute_25 tripinfo_25 fcd_25" vType="DEFAULT_VEHTYPE" speedFactor="0.87" vaporized=""/>
    <tripinfo id="27" depart="977.00" departLane="a122_0" departPos="5.10" departSpeed="0.00" departDelay="0.87" arrival="1236.00" arrivalLane="b2[1][1][1]b_0" arrivalPos="325.74" arrivalSpeed="13.06" duration="259.00" routeLength="2661.65" waitingTime="20.00" waitingCount="2" stopTime="0.00" timeLoss="53.79" rerouteNo="0" devices="vehroute_27 tripinfo_27 fcd_27" vType="DEFAULT_VEHTYPE" speedFactor="0.95" vaporized=""/>
    <tripinfo id="28" depart="1007.00" departLane="a210_0" departPos="5.10" departSpeed="0.00" departDelay="0.07" arrival="1283.00" arrivalLane="b4[0]_1" arrivalPos="131.31" arrivalSpeed="15.64" duration="276.00" routeLength="2930.71" waitingTime="27.00" waitingCount="3" stopTime="0.00" timeLoss="86.15" rerouteNo="0" devices="vehroute_28 tripinfo_28 fcd_28" vType="DEFAULT_VEHTYPE" speedFactor="1.13" vaporized=""/>
    <tripinfo id="26" depart="926.00" departLane="a210_0" departPos="5.10" departSpeed="0.00" departDelay="0.63" arrival="1284.00" arrivalLane="b4[0]_0" arrivalPos="131.31" arrivalSpeed="12.21" duration="358.00" routeLength="2943.26" waitingTime="81.00" waitingCount="2" stopTime="0.00" timeLoss="122.32" rerouteNo="0" devices="vehroute_26 tripinfo_26 fcd_26" vType="DEFAULT_VEHTYPE" speedFactor="0.92" vaporized=""/>
    <tripinfo id="30" depart="1130.00" departLane="a122_0" departPos="5.10" departSpeed="0.00" departDelay="0.58" arrival="1355.00" arrivalLane="b2[1][1][1]b_1" arrivalPos="325.74" arrivalSpeed="15.49" duration="225.00" routeLength="2658.69" waitingTime="22.00" waitingCount="3" stopTime="0.00" timeLoss="60.01" rerouteNo="0" devices="vehroute_30 tripinfo_30 fcd_30" vType="DEFAULT_VEHTYPE" speedFactor="1.18" vaporized=""/>
    <tripinfo id="31" depart="1144.00" departLane="a122_0" departPos="5.10" departSpeed="0.00" departDelay="0.89" arrival="1356.00" arrivalLane="b2[1][1][1]b_0" arrivalPos="325.74" arrivalSpeed="15.00" duration="212.00" routeLength="2657.16" waitingTime="13.00" waitingCount="2" stopTime="0.00" timeLoss="43.44" rerouteNo="0" devices="vehroute_31 tripinfo_31 fcd_31" vType="DEFAULT_VEHTYPE" speedFactor="1.15" vaporized=""/>
    <tripinfo id="29" depart="1084.00" departLane="a210_0" departPos="5.10" departSpeed="0.00" departDelay="0.93" arrival="1407.00" arrivalLane="b4[0]_0" arrivalPos="131.31" arrivalSpeed="12.61" duration="323.00" routeLength="2943.26" waitingTime="52.00" waitingCount="3" stopTime="0.00" timeLoss="91.66" rerouteNo="0" devices="vehroute_29 tripinfo_29 fcd_29" vType="DEFAULT_VEHTYPE" speedFactor="0.93" vaporized=""/>
    <tripinfo id="33" depart="1201.00" departLane="a122_0" departPos="5.10" departSpeed="0.00" departDelay="0.15" arrival="1480.00" arrivalLane="b2[1][1][1]b_0" arrivalPos="325.74" arrivalSpeed="15.49" duration="279.00" routeLength="2657.16" waitingTime="81.00" waitingCount="2" stopTime="0.00" timeLoss="113.70" rerouteNo="0" devices="vehroute_33 tripinfo_33 fcd_33" vType="DEFAULT_VEHTYPE" speedFactor="1.17" vaporized=""/>
    <tripinfo id="32" depart="1162.00" departLane="a210_0" departPos="5.10" departSpeed="0.00" departDelay="0.90" arrival="1523.00" arrivalLane="b4[0]_0" arrivalPos="131.31" arrivalSpeed="13.48" duration="361.00" routeLength="2943.26" waitingTime="105.00" waitingCount="4" stopTime="0.00" timeLoss="146.50" rerouteNo="0" devices="vehroute_32 tripinfo_32 fcd_32" vType="DEFAULT_VEHTYPE" speedFactor="1.01" vaporized=""/>
    <tripinfo id="34" depart="1231.00" departLane="a210_0" departPos="5.10" departSpeed="0.00" departDelay="0.97" arrival="1525.00" arrivalLane="b4[0]_1" arrivalPos="131.31" arrivalSpeed="13.42" duration="294.00" routeLength="2930.71" waitingTime="32.00" waitingCount="4" stopTime="0.00" timeLoss="78.24" rerouteNo="0" devices="vehroute_34 tripinfo_34 fcd_34" vType="DEFAULT_VEHTYPE" speedFactor="0.99" vaporized=""/>
    <tripinfo id="35" depart="1237.00" departLane="a210_0" departPos="5.10" departSpeed="0.00" departDelay="0.18" arrival="1528.00" arrivalLane="b4[0]_0" arrivalPos="131.31" arrivalSpeed="13.21" duration="291.00" routeLength="2943.26" waitingTime="27.00" waitingCount="2" stopTime="0.00" timeLoss="79.29" rerouteNo="0" devices="vehroute_35 tripinfo_35 fcd_35" vType="DEFAULT_VEHTYPE" speedFactor="1.02" vaporized=""/>
    <tripinfo id="36" depart="1247.00" departLane="a210_0" departPos="5.10" departSpeed="0.00" departDelay="0.24" arrival="1531.00" arrivalLane="b4[0]_0" arrivalPos="131.31" arrivalSpeed="12.67" duration="284.00" routeLength="2943.26" waitingTime="17.00" waitingCount="2" stopTime="0.00" timeLoss="62.65" rerouteNo="0" devices="vehroute_36 tripinfo_36 fcd_36" vType="DEFAULT_VEHTYPE" speedFactor="0.97" vaporized=""/>
    <tripinfo id="38" depart="1322.00" departLane="a122_0" departPos="5.10" departSpeed="0.00" departDelay="0.96" arrival="1607.00" arrivalLane="b2[1][1][1]b_0" arrivalPos="325.74" arrivalSpeed="14.22" duration="285.00" routeLength="2657.16" waitingTime="69.00" waitingCount="2" stopTime="0.00" timeLoss="108.53" rerouteNo="0" devices="vehroute_38 tripinfo_38 fcd_38" vType="DEFAULT_VEHTYPE" speedFactor="1.10" vaporized=""/>
    <tripinfo id="37" depart="1307.00" departLane="a210_0" departPos="5.10" departSpeed="0.00" departDelay="0.40" arrival="1636.00" arrivalLane="b4[0]_0" arrivalPos="131.31" arrivalSpeed="15.54" duration="329.00" routeLength="2943.26" waitingTime="105.00" waitingCount="4" stopTime="0.00" timeLoss="146.72" rerouteNo="0" devices="vehroute_37 tripinfo_37 fcd_37" vType="DEFAULT_VEHTYPE" speedFactor="1.18" vaporized=""/>
    <tripinfo id="40" depart="1372.00" departLane="a210_0" departPos="5.10" departSpeed="0.00" departDelay="0.73" arrival="1650.00" arrivalLane="b4[0]_1" arrivalPos="131.31" arrivalSpeed="13.92" duration="278.00" routeLength="2930.71" waitingTime="12.00" waitingCount="1" stopTime="0.00" timeLoss="69.81" rerouteNo="0" devices="vehroute_40 tripinfo_40 fcd_40" vType="DEFAULT_VEHTYPE" speedFactor="1.03" vaporized=""/>
    <tripinfo id="39" depart="1363.00" departLane="a210_0" departPos="5.10" departSpeed="0.00" departDelay="0.48" arrival="1651.00" arrivalLane="b4[0]_0" arrivalPos="131.31" arrivalSpeed="12.47" duration="288.00" routeLength="2943.26" waitingTime="13.00" waitingCount="1" stopTime="0.00" timeLoss="48.56" rerouteNo="0" devices="vehroute_39 tripinfo_39 fcd_39" vType="DEFAULT_VEHTYPE" speedFactor="0.90" vaporized=""/>
    <tripinfo id="41" depart="1378.00" departLane="a210_0" departPos="5.10" departSpeed="0.00" departDelay="0.91" arrival="1655.00" arrivalLane="b4[0]_0" arrivalPos="131.31" arrivalSpeed="12.93" duration="277.00" routeLength="2943.26" waitingTime="8.00" waitingCount="1" stopTime="0.00" timeLoss="51.03" rerouteNo="0" devices="vehroute_41 tripinfo_41 fcd_41" vType="DEFAULT_VEHTYPE" speedFactor="0.96" vaporized=""/>
    <tripinfo id="42" depart="1408.00" departLane="a210_0" departPos="5.10" departSpeed="0.00" departDelay="0.25" arrival="1655.00" arrivalLane="b4[0]_1" arrivalPos="131.31" arrivalSpeed="14.78" duration="247.00" routeLength="2930.71" waitingTime="0.00" waitingCount="0" stopTime="0.00" timeLoss="50.78" rerouteNo="0" devices="vehroute_42 tripinfo_42 fcd_42" vType="DEFAULT_VEHTYPE" speedFactor="1.09" vaporized=""/>
    <tripinfo id="44" depart="1445.00" departLane="a122_0" departPos="5.10" departSpeed="0.00" departDelay="0.72" arrival="1733.00" arrivalLane="b2[1][1][1]b_0" arrivalPos="325.74" arrivalSpeed="14.19" duration="288.00" routeLength="2657.16" waitingTime="66.00" waitingCount="3" stopTime="0.00" timeLoss="102.22" rerouteNo="0" devices="vehroute_44 tripinfo_44 fcd_44" vType="DEFAULT_VEHTYPE" speedFactor="1.04" vaporized=""/>
    <tripinfo id="43" depart="1430.00" departLane="a122_0" departPos="5.10" departSpeed="0.00" departDelay="0.16" arrival="1734.00" arrivalLane="b2[1][1][1]b_0" arrivalPos="325.74" arrivalSpeed="13.81" duration="304.00" routeLength="2658.69" waitingTime="72.00" waitingCount="4" stopTime="0.00" timeLoss="116.76" rerouteNo="0" devices="vehroute_43 tripinfo_43 fcd_43" vType="DEFAULT_VEHTYPE" speedFactor="1.04" vaporized=""/>
    <tripinfo id="45" depart="1475.00" departLane="a210_0" departPos="5.10" departSpeed="0.00" departDelay="0.88" arrival="1764.00" arrivalLane="b4[0]_0" arrivalPos="131.31" arrivalSpeed="13.98" duration="289.00" routeLength="2943.26" waitingTime="40.00" waitingCount="4" stopTime="0.00" timeLoss="90.66" rerouteNo="0" devices="vehroute_45 tripinfo_45 fcd_45" vType="DEFAULT_VEHTYPE" speedFactor="1.09" vaporized=""/>
    <tripinfo id="46" depart="1522.00" departLane="a210_0" departPos="5.10" departSpeed="0.00" departDelay="0.32" arrival="1891.00" arrivalLane="b4[0]_0" arrivalPos="131.31" arrivalSpeed="13.12" duration="369.00" routeLength="2943.26" waitingTime="104.00" waitingCount="5" stopTime="0.00" timeLoss="153.46" rerouteNo="0" devices="vehroute_46 tripinfo_46 fcd_46" vType="DEFAULT_VEHTYPE" speedFactor="1.00" vaporized=""/>
    <tripinfo id="47" depart="1593.00" departLane="a210_0" departPos="5.10" departSpeed="0.00" departDelay="0.32" arrival="1897.00" arrivalLane="b4[0]_0" arrivalPos="131.31" arrivalSpeed="12.01" duration="304.00" routeLength="2943.26" waitingTime="23.00" waitingCount="2" stopTime="0.00" timeLoss="65.39" rerouteNo="0" devices="vehroute_47 tripinfo_47 fcd_47" vType="DEFAULT_VEHTYPE" speedFactor="0.90" vaporized=""/>
    <tripinfo id="48" depart="1607.00" departLane="a122_0" departPos="5.10" departSpeed="0.00" departDelay="0.13" arrival="1975.00" arrivalLane="b2[1][1][1]b_0" arrivalPos="325.74" arrivalSpeed="11.70" duration="368.00" routeLength="2661.65" waitingTime="113.00" waitingCount="3" stopTime="0.00" timeLoss="146.24" rerouteNo="0" devices="vehroute_48 tripinfo_48 fcd_48" vType="DEFAULT_VEHTYPE" speedFactor="0.88" vaporized=""/>
    <tripinfo id="49" depart="1645.00" departLane="a122_0" departPos="5.10" departSpeed="0.00" departDelay="0.31" arrival="1977.00" arrivalLane="b2[1][1][1]b_0" arrivalPos="325.74" arrivalSpeed="11.28" duration="332.00" routeLength="2657.16" waitingTime="80.00" waitingCount="1" stopTime="0.00" timeLoss="104.30" rerouteNo="0" devices="vehroute_49 tripinfo_49 fcd_49" vType="DEFAULT_VEHTYPE" speedFactor="0.85" vaporized=""/>
    <tripinfo id="51" depart="1722.00" departLane="a210_0" departPos="5.10" departSpeed="0.00" departDelay="0.36" arrival="2025.00" arrivalLane="b4[0]_1" arrivalPos="131.31" arrivalSpeed="15.31" duration="303.00" routeLength="2930.71" waitingTime="21.00" waitingCount="3" stopTime="0.00" timeLoss="118.79" rerouteNo="0" devices="vehroute_51 tripinfo_51 fcd_51" vType="DEFAULT_VEHTYPE" speedFactor="1.17" vaporized=""/>
    <tripinfo id="50" depart="1710.00" departLane="a210_0" departPos="5.10" departSpeed="0.00" departDelay="0.41" arrival="2028.00" arrivalLane="b4[0]_0" arrivalPos="131.31" arrivalSpeed="11.34" duration="318.00" routeLength="2943.26" waitingTime="23.00" waitingCount="3" stopTime="0.00" timeLoss="66.28" rerouteNo="0" devices="vehroute_50 tripinfo_50 fcd_50" vType="DEFAULT_VEHTYPE" speedFactor="0.85" vaporized=""/>
    <tripinfo id="52" depart="1726.00" departLane="a210_0" departPos="5.10" departSpeed="0.00" departDelay="0.32" arrival="2030.00" arrivalLane="b4[0]_0" arrivalPos="131.31" arrivalSpeed="14.02" duration="304.00" routeLength="2943.26" waitingTime="18.00" waitingCount="1" stopTime="0.00" timeLoss="92.39" rerouteNo="0" devices="vehroute_52 tripinfo_52 fcd_52" vType="DEFAULT_VEHTYPE" speedFactor="1.02" vaporized=""/>
    <tripinfo id="53" depart="1805.00" departLane="a122_0" departPos="5.10" departSpeed="0.00" departDelay="0.85" arrival="2082.00" arrivalLane="b2[1][1][1]b_0" arrivalPos="325.74" arrivalSpeed="14.72" duration="277.00" routeLength="2657.16" waitingTime="71.00" waitingCount="2" stopTime="0.00" timeLoss="100.79" rerouteNo="0" devices="vehroute_53 tripinfo_53 fcd_53" vType="DEFAULT_VEHTYPE" speedFactor="1.10" vaporized=""/>
    <tripinfo id="54" depart="1822.00" departLane="a210_0" departPos="5.10" departSpeed="0.00" departDelay="0.01" arrival="2138.00" arrivalLane="b4[0]_0" arrivalPos="131.31" arrivalSpeed="13.81" duration="316.00" routeLength="2943.26" waitingTime="56.00" waitingCount="5" stopTime="0.00" timeLoss="101.69" rerouteNo="0" devices="vehroute_54 tripinfo_54 fcd_54" vType="DEFAULT_VEHTYPE" speedFactor="1.00" vaporized=""/>
    <tripinfo id="55" depart="1825.00" departLane="a210_0" departPos="5.10" departSpeed="0.00" departDelay="0.38" arrival="2141.00" arrivalLane="b4[0]_0" arrivalPos="131.31" arrivalSpeed="13.77" duration="316.00" routeLength="2943.26" waitingTime="51.00" waitingCount="4" stopTime="0.00" timeLoss="99.89" rerouteNo="0" devices="vehroute_55 tripinfo_55 fcd_55" vType="DEFAULT_VEHTYPE" speedFactor="1.00" vaporized=""/>
    <tripinfo id="56" depart="1836.00" departLane="a210_0" departPos="5.10" departSpeed="0.00" departDelay="0.99" arrival="2147.00" arrivalLane="b4[0]_0" arrivalPos="131.31" arrivalSpeed="11.24" duration="311.00" routeLength="2943.26" waitingTime="37.00" waitingCount="1" stopTime="0.00" timeLoss="71.13" rerouteNo="0" devices="vehroute_56 tripinfo_56 fcd_56" vType="DEFAULT_VEHTYPE" speedFactor="0.90" vaporized=""/>
    <tripinfo id="58" depart="1944.00" departLane="a122_0" departPos="5.10" departSpeed="0.00" departDelay="0.96" arrival="2209.00" arrivalLane="b2[1][1][1]b_0" arrivalPos="325.74" arrivalSpeed="13.09" duration="265.00" routeLength="2661.65" waitingTime="48.00" waitingCount="2" stopTime="0.00" timeLoss="75.56" rerouteNo="0" devices="vehroute_58 tripinfo_58 fcd_58" vType="DEFAULT_VEHTYPE" speedFactor="1.02" vaporized=""/>
    <tripinfo id="57" depart="1917.00" departLane="a210_0" departPos="5.10" departSpeed="0.00" departDelay="0.07" arrival="2253.00" arrivalLane="b4[0]_0" arrivalPos="131.31" arrivalSpeed="15.58" duration="336.00" routeLength="2943.26" waitingTime="102.00" waitingCount="4" stopTime="0.00" timeLoss="147.24" rerouteNo="0" devices="vehroute_57 tripinfo_57 fcd_57" vType="DEFAULT_VEHTYPE" speedFactor="1.14" vaporized=""/>
    <tripinfo id="61" depart="2069.00" departLane="a122_0" departPos="5.10" departSpeed="0.00" departDelay="0.49" arrival="2339.00" arrivalLane="b2[1][1][1]b_0" arrivalPos="325.74" arrivalSpeed="14.51" duration="270.00" routeLength="2658.69" waitingTime="63.00" waitingCount="3" stopTime="0.00" timeLoss="96.78" rerouteNo="0" devices="vehroute_61 tripinfo_61 fcd_61" vType="DEFAULT_VEHTYPE" speedFactor="1.12" vaporized=""/>
    <tripinfo id="62" depart="2072.00" departLane="a122_0" departPos="5.10" departSpeed="0.00" departDelay="1.41" arrival="2342.00" arrivalLane="b2[1][1][1]b_0" arrivalPos="325.74" arrivalSpeed="13.00" duration="270.00" routeLength="2657.16" waitingTime="43.00" waitingCount="3" stopTime="0.00" timeLoss="79.02" rerouteNo="0" devices="vehroute_62 tripinfo_62 fcd_62" vType="DEFAULT_VEHTYPE" speedFactor="1.02" vaporized=""/>
    <tripinfo id="63" depart="2090.00" departLane="a122_0" departPos="5.10" departSpeed="0.00" departDelay="0.29" arrival="2344.00" arrivalLane="b2[1][1][1]b_0" arrivalPos="325.74" arrivalSpeed="12.83" duration="254.00" routeLength="2657.16" waitingTime="29.00" waitingCount="1" stopTime="0.00" timeLoss="58.34" rerouteNo="0" devices="vehroute_63 tripinfo_63 fcd_63" vType="DEFAULT_VEHTYPE" speedFactor="0.99" vaporized=""/>
    <tripinfo id="59" depart="2040.00" departLane="a210_0" departPos="5.10" departSpeed="0.00" departDelay="0.33" arrival="2386.00" arrivalLane="b4[0]_0" arrivalPos="131.31" arrivalSpeed="12.86" duration="346.00" routeLength="2943.26" waitingTime="78.00" waitingCount="4" stopTime="0.00" timeLoss="124.26" rerouteNo="0" devices="vehroute_59 tripinfo_59 fcd_59" vType="DEFAULT_VEHTYPE" speedFactor="0.97" vaporized=""/>
    <tripinfo id="60" depart="2063.00" departLane="a210_0" departPos="5.10" departSpeed="0.00" departDelay="0.05" arrival="2388.00" arrivalLane="b4[0]_0" arrivalPos="131.31" arrivalSpeed="14.44" duration="325.00" routeLength="2943.26" waitingTime="73.00" waitingCount="3" stopTime="0.00" timeLoss="126.63" rerouteNo="0" devices="vehroute_60 tripinfo_60 fcd_60" vType="DEFAULT_VEHTYPE" speedFactor="1.08" vaporized=""/>
    <tripinfo id="64" depart="2135.00" departLane="a210_0" departPos="5.10" departSpeed="0.00" departDelay="0.88" arrival="2395.00" arrivalLane="b4[0]_0" arrivalPos="131.31" arrivalSpeed="11.97" duration="260.00" routeLength="2943.26" waitingTime="0.00" waitingCount="0" stopTime="0.00" timeLoss="30.67" rerouteNo="0" devices="vehroute_64 tripinfo_64 fcd_64" vType="DEFAULT_VEHTYPE" speedFactor="0.94" vaporized=""/>
    <tripinfo id="68" depart="2222.00" departLane="a122_0" departPos="5.10" departSpeed="0.00" departDelay="0.24" arrival="2466.00" arrivalLane="b2[1][1][1]b_0" arrivalPos="325.74" arrivalSpeed="14.35" duration="244.00" routeLength="2657.16" waitingTime="15.00" waitingCount="3" stopTime="0.00" timeLoss="57.36" rerouteNo="0" devices="vehroute_68 tripinfo_68 fcd_68" vType="DEFAULT_VEHTYPE" speedFactor="1.04" vaporized=""/>
    <tripinfo id="66" depart="2183.00" departLane="a122_0" departPos="5.10" departSpeed="0.00" departDelay="0.06" arrival="2469.00" arrivalLane="b2[1][1][1]b_0" arrivalPos="325.74" arrivalSpeed="12.53" duration="286.00" routeLength="2654.20" waitingTime="35.00" waitingCount="4" stopTime="0.00" timeLoss="72.94" rerouteNo="0" devices="vehroute_66 tripinfo_66 fcd_66" vType="DEFAULT_VEHTYPE" speedFactor="0.91" vaporized=""/>