<?xml version="1.0" encoding="UTF-8"?>

<!-- generated on 2025-03-21 18:03:04 by Eclipse SUMO sumo Version 1.21.0
<sumoConfiguration xmlns:xsi="http://www.w3.org/2001/XMLSchema-instance" xsi:noNamespaceSchemaLocation="http://sumo.dlr.de/xsd/sumoConfiguration.xsd">

    <input>
        <net-file value="${STATICPATH}/joined_lanes.net.xml"/>
        <route-files value="${SIMULATIONPATH}/generatedRoutes.rou.xml"/>
        <additional-files value="${STATICPATH}/detectors.add.xml,${STATICPATH}/joined_vtypes.add.xml,${STATICPATH}/joined_tls.add.xml"/>
    </input>

    <output>
        <fcd-output value="${SIMULATIONPATH}/fcd.xml"/>
        <queue-output value="${SIMULATIONPATH}/queue.xml"/>
        <summary-output value="${SIMULATIONPATH}/summary.xml"/>
        <tripinfo-output value="${SIMULATIONPATH}/tripinfos.xml"/>
        <vehroute-output value="${SIMULATIONPATH}/vehroute.xml"/>
        <save-state.prefix value="configs\state"/>
    </output>

    <processing>
        <ignore-junction-blocker value="1"/>
        <ignore-route-errors value="true"/>
        <time-to-teleport value="-1"/>
    </processing>

    <report>
        <log value="C:/Users/fabio/Desktop/sumo_log.txt"/>
        <no-step-log value="true"/>
    </report>

    <emissions>
        <phemlight-path value="configs\./PHEMlight/"/>
    </emissions>

    <traci_server>
        <remote-port value="60289"/>
    </traci_server>

</sumoConfiguration>
-->

<tripinfos xmlns:xsi="http://www.w3.org/2001/XMLSchema-instance" xsi:noNamespaceSchemaLocation="http://sumo.dlr.de/xsd/tripinfo_file.xsd">
    <tripinfo id="0" depart="40.00" departLane="a210_0" departPos="5.10" departSpeed="0.00" departDelay="0.29" arrival="397.00" arrivalLane="b17[1]_0" arrivalPos="187.21" arrivalSpeed="13.98" duration="357.00" routeLength="2779.71" waitingTime="121.00" waitingCount="5" stopTime="0.00" timeLoss="165.23" rerouteNo="0" devices="vehroute_0 tripinfo_0 fcd_0" vType="DEFAULT_VEHTYPE" speedFactor="1.06" vaporized=""/>
    <tripinfo id="1" depart="44.00" departLane="a210_0" departPos="5.10" departSpeed="0.00" departDelay="0.41" arrival="403.00" arrivalLane="b17[1]_0" arrivalPos="187.21" arrivalSpeed="12.58" duration="359.00" routeLength="2779.71" waitingTime="103.00" waitingCount="3" stopTime="0.00" timeLoss="141.43" rerouteNo="0" devices="vehroute_1 tripinfo_1 fcd_1" vType="DEFAULT_VEHTYPE" speedFactor="0.94" vaporized=""/>
    <tripinfo id="3" depart="70.00" departLane="a210_0" departPos="5.10" departSpeed="0.00" departDelay="0.91" arrival="403.00" arrivalLane="b4[1][1][1]_0" arrivalPos="171.54" arrivalSpeed="14.41" duration="333.00" routeLength="2767.14" waitingTime="108.00" waitingCount="4" stopTime="0.00" timeLoss="148.13" rerouteNo="0" devices="vehroute_3 tripinfo_3 fcd_3" vType="DEFAULT_VEHTYPE" speedFactor="1.08" vaporized=""/>
    <tripinfo id="2" depart="47.00" departLane="a210_0" departPos="5.10" departSpeed="0.00" departDelay="3.37" arrival="404.00" arrivalLane="b17[1]_0" arrivalPos="187.21" arrivalSpeed="13.43" duration="357.00" routeLength="2779.71" waitingTime="99.00" waitingCount="3" stopTime="0.00" timeLoss="155.35" rerouteNo="0" devices="vehroute_2 tripinfo_2 fcd_2" vType="DEFAULT_VEHTYPE" speedFactor="1.01" vaporized=""/>
    <tripinfo id="4" depart="76.00" departLane="a210_0" departPos="5.10" departSpeed="0.00" departDelay="0.60" arrival="406.00" arrivalLane="b17[1]_0" arrivalPos="187.21" arrivalSpeed="13.75" duration="330.00" routeLength="2779.71" waitingTime="78.00" waitingCount="3" stopTime="0.00" timeLoss="131.76" rerouteNo="0" devices="vehroute_4 tripinfo_4 fcd_4" vType="DEFAULT_VEHTYPE" speedFactor="1.03" vaporized=""/>
    <tripinfo id="5" depart="139.00" departLane="a210_0" departPos="5.10" departSpeed="0.00" departDelay="0.67" arrival="420.00" arrivalLane="b17[1]_0" arrivalPos="187.21" arrivalSpeed="10.76" duration="281.00" routeLength="2779.71" waitingTime="2.00" waitingCount="1" stopTime="0.00" timeLoss="35.16" rerouteNo="0" devices="vehroute_5 tripinfo_5 fcd_5" vType="DEFAULT_VEHTYPE" speedFactor="0.83" vaporized=""/>
    <tripinfo id="6" depart="151.00" departLane="a210_0" departPos="5.10" departSpeed="0.00" departDelay="0.98" arrival="421.00" arrivalLane="b17[1]_0" arrivalPos="187.21" arrivalSpeed="13.90" duration="270.00" routeLength="2779.71" waitingTime="0.00" waitingCount="0" stopTime="0.00" timeLoss="75.53" rerouteNo="0" devices="vehroute_6 tripinfo_6 fcd_6" vType="DEFAULT_VEHTYPE" speedFactor="1.05" vaporized=""/>
    <tripinfo id="7" depart="154.00" departLane="a210_0" departPos="5.10" departSpeed="0.00" departDelay="2.98" arrival="423.00" arrivalLane="b17[1]_0" arrivalPos="187.21" arrivalSpeed="11.39" duration="269.00" routeLength="2779.71" waitingTime="0.00" waitingCount="0" stopTime="0.00" timeLoss="39.32" rerouteNo="0" devices="vehroute_7 tripinfo_7 fcd_7" vType="DEFAULT_VEHTYPE" speedFactor="0.89" vaporized=""/>
    <tripinfo id="11" depart="296.00" departLane="a210_0" departPos="5.10" departSpeed="0.00" departDelay="0.18" arrival="534.00" arrivalLane="b17[1]_0" arrivalPos="187.21" arrivalSpeed="12.98" duration="238.00" routeLength="2779.71" waitingTime="9.00" waitingCount="2" stopTime="0.00" timeLoss="39.60" rerouteNo="0" devices="vehroute_11 tripinfo_11 fcd_11" vType="DEFAULT_VEHTYPE" speedFactor="1.03" vaporized=""/>
    <tripinfo id="10" depart="260.00" departLane="a210_0" departPos="5.10" departSpeed="0.00" departDelay="0.50" arrival="555.00" arrivalLane="b4[1][1][1]_0" arrivalPos="171.54" arrivalSpeed="13.88" duration="295.00" routeLength="2767.14" waitingTime="85.00" waitingCount="3" stopTime="0.00" timeLoss="111.55" rerouteNo="0" devices="vehroute_10 tripinfo_10 fcd_10" vType="DEFAULT_VEHTYPE" speedFactor="1.09" vaporized=""/>
    <tripinfo id="12" depart="306.00" departLane="a210_0" departPos="5.10" departSpeed="0.00" departDelay="0.75" arrival="558.00" arrivalLane="b4[1][1][1]_0" arrivalPos="171.54" arrivalSpeed="13.60" duration="252.00" routeLength="2764.18" waitingTime="31.00" waitingCount="2" stopTime="0.00" timeLoss="60.83" rerouteNo="0" devices="vehroute_12 tripinfo_12 fcd_12" vType="DEFAULT_VEHTYPE" speedFactor="1.05" vaporized=""/>
    <tripinfo id="8" depart="240.00" departLane="a210_0" departPos="5.10" departSpeed="0.00" departDelay="0.05" arrival="562.00" arrivalLane="b4[1][1][1]_0" arrivalPos="171.54" arrivalSpeed="12.65" duration="322.00" routeLength="2767.14" waitingTime="72.00" waitingCount="3" stopTime="0.00" timeLoss="107.90" rerouteNo="0" devices="vehroute_8 tripinfo_8 fcd_8" vType="DEFAULT_VEHTYPE" speedFactor="0.94" vaporized=""/>
    <tripinfo id="9" depart="257.00" departLane="a210_0" departPos="5.10" departSpeed="0.00" departDelay="0.48" arrival="566.00" arrivalLane="b4[1][1][1]_0" arrivalPos="171.54" arrivalSpeed="10.96" duration="309.00" routeLength="2764.18" waitingTime="47.00" waitingCount="2" stopTime="0.00" timeLoss="74.98" rerouteNo="0" devices="vehroute_9 tripinfo_9 fcd_9" vType="DEFAULT_VEHTYPE" speedFactor="0.86" vaporized=""/>
    <tripinfo id="13" depart="354.00" departLane="a210_0" departPos="5.10" departSpeed="0.00" departDelay="0.90" arrival="568.00" arrivalLane="b4[1][1][1]_0" arrivalPos="171.54" arrivalSpeed="15.10" duration="214.00" routeLength="2767.14" waitingTime="15.00" waitingCount="1" stopTime="0.00" timeLoss="35.19" rerouteNo="0" devices="vehroute_13 tripinfo_13 fcd_13" vType="DEFAULT_VEHTYPE" speedFactor="1.12" vaporized=""/>
    <tripinfo id="15" depart="396.00" departLane="a210_0" departPos="5.10" departSpeed="0.00" departDelay="0.95" arrival="747.00" arrivalLane="b4[1][1][1]_0" arrivalPos="171.54" arrivalSpeed="11.93" duration="351.00" routeLength="2767.14" waitingTime="109.00" waitingCount="3" stopTime="0.00" timeLoss="135.18" rerouteNo="0" devices="vehroute_15 tripinfo_15 fcd_15" vType="DEFAULT_VEHTYPE" speedFactor="0.93" vaporized=""/>
    <tripinfo id="16" depart="437.00" departLane="a210_0" departPos="5.10" departSpeed="0.00" departDelay="0.01" arrival="750.00" arrivalLane="b4[1][1][1]_0" arrivalPos="171.54" arrivalSpeed="11.56" duration="313.00" routeLength="2764.18" waitingTime="54.00" waitingCount="3" stopTime="0.00" timeLoss="85.62" rerouteNo="0" devices="vehroute_16 tripinfo_16 fcd_16" vType="DEFAULT_VEHTYPE" speedFactor="0.88" vaporized=""/>
    <tripinfo id="14" depart="357.00" departLane="a210_0" departPos="5.10" departSpeed="0.00" departDelay="2.78" arrival="770.00" arrivalLane="b17[1]_0" arrivalPos="187.21" arrivalSpeed="13.76" duration="413.00" routeLength="2779.71" waitingTime="158.00" waitingCount="6" stopTime="0.00" timeLoss="208.14" rerouteNo="0" devices="vehroute_14 tripinfo_14 fcd_14" vType="DEFAULT_VEHTYPE" speedFactor="0.99" vaporized=""/>
    <tripinfo id="18" depart="494.00" departLane="a210_0" departPos="5.10" departSpeed="0.00" departDelay="0.41" arrival="770.00" arrivalLane="b4[1][1][1]_0" arrivalPos="171.54" arrivalSpeed="12.08" duration="276.00" routeLength="2767.14" waitingTime="35.00" waitingCount="2" stopTime="0.00" timeLoss="62.08" rerouteNo="0" devices="vehroute_18 tripinfo_18 fcd_18" vType="DEFAULT_VEHTYPE" speedFactor="0.94" vaporized=""/>
    <tripinfo id="17" depart="462.00" departLane="a210_0" departPos="5.10" departSpeed="0.00" departDelay="0.86" arrival="774.00" arrivalLane="b17[1]_0" arrivalPos="187.21" arrivalSpeed="12.18" duration="312.00" routeLength="2779.71" waitingTime="58.00" waitingCount="2" stopTime="0.00" timeLoss="94.96" rerouteNo="0" devices="vehroute_17 tripinfo_17 fcd_17" vType="DEFAULT_VEHTYPE" speedFactor="0.94" vaporized=""/>
    <tripinfo id="20" depart="544.00" departLane="a210_0" departPos="5.10" departSpeed="0.00" departDelay="3.39" arrival="891.00" arrivalLane="b17[1]_0" arrivalPos="187.21" arrivalSpeed="13.81" duration="347.00" routeLength="2779.71" waitingTime="108.00" waitingCount="4" stopTime="0.00" timeLoss="147.81" rerouteNo="0" devices="vehroute_20 tripinfo_20 fcd_20" vType="DEFAULT_VEHTYPE" speedFactor="1.02" vaporized=""/>
    <tripinfo id="19" depart="541.00" departLane="a210_0" departPos="5.10" departSpeed="0.00" departDelay="0.82" arrival="897.00" arrivalLane="b4[1][1][1]_0" arrivalPos="171.54" arrivalSpeed="14.82" duration="356.00" routeLength="2767.14" waitingTime="148.00" waitingCount="4" stopTime="0.00" timeLoss="183.11" rerouteNo="0" devices="vehroute_19 tripinfo_19 fcd_19" vType="DEFAULT_VEHTYPE" speedFactor="1.16" vaporized=""/>
    <tripinfo id="21" depart="627.00" departLane="a210_0" departPos="5.10" departSpeed="0.00" departDelay="0.21" arrival="900.00" arrivalLane="b4[1][1][1]_0" arrivalPos="171.54" arrivalSpeed="13.83" duration="273.00" routeLength="2764.18" waitingTime="37.00" waitingCount="4" stopTime="0.00" timeLoss="75.30" rerouteNo="0" devices="vehroute_21 tripinfo_21 fcd_21" vType="DEFAULT_VEHTYPE" speedFactor="1.01" vaporized=""/>
    <tripinfo id="22" depart="667.00" departLane="a210_0" departPos="5.10" departSpeed="0.00" departDelay="0.30" arrival="1017.00" arrivalLane="b17[1]_0" arrivalPos="187.21" arrivalSpeed="12.57" duration="350.00" routeLength="2779.71" waitingTime="105.00" waitingCount="4" stopTime="0.00" timeLoss="140.97" rerouteNo="0" devices="vehroute_22 tripinfo_22 fcd_22" vType="DEFAULT_VEHTYPE" speedFactor="0.97" vaporized=""/>
    <tripinfo id="23" depart="701.00" departLane="a210_0" departPos="5.10" departSpeed="0.00" departDelay="0.36" arrival="1064.00" arrivalLane="b4[1][1][1]_0" arrivalPos="171.54" arrivalSpeed="12.12" duration="363.00" routeLength="2767.14" waitingTime="103.00" waitingCount="3" stopTime="0.00" timeLoss="138.05" rerouteNo="0" devices="vehroute_23 tripinfo_23 fcd_23" vType="DEFAULT_VEHTYPE" speedFactor="0.89" vaporized=""/>
    <tripinfo id="25" depart="775.00" departLane="a210_0" departPos="5.10" departSpeed="0.00" departDelay="0.27" arrival="1067.00" arrivalLane="b4[1][1][1]_0" arrivalPos="171.54" arrivalSpeed="11.43" duration="292.00" routeLength="2767.14" waitingTime="36.00" waitingCount="2" stopTime="0.00" timeLoss="62.35" rerouteNo="0" devices="vehroute_25 tripinfo_25 fcd_25" vType="DEFAULT_VEHTYPE" speedFactor="0.87" vaporized=""/>
    <tripinfo id="24" depart="741.00" departLane="a210_0" departPos="5.10" departSpeed="0.00" departDelay="0.53" arrival="1070.00" arrivalLane="b4[1][1][1]_0" arrivalPos="171.54" arrivalSpeed="10.94" duration="329.00" routeLength="2764.18" waitingTime="55.00" waitingCount="3" stopTime="0.00" timeLoss="86.85" rerouteNo="0" devices="vehroute_24 tripinfo_24 fcd_24" vType="DEFAULT_VEHTYPE" speedFactor="0.83" vaporized=""/>
    <tripinfo id="26" depart="869.00" departLane="a210_0" departPos="5.10" departSpeed="0.00" departDelay="0.67" arrival="1142.00" arrivalLane="b17[1]_0" arrivalPos="187.21" arrivalSpeed="11.88" duration="273.00" routeLength="2779.71" waitingTime="13.00" waitingCount="2" stopTime="0.00" timeLoss="50.95" rerouteNo="0" devices="vehroute_26 tripinfo_26 fcd_26" vType="DEFAULT_VEHTYPE" speedFactor="0.92" vaporized=""/>
    <tripinfo id="28" depart="936.00" departLane="a210_0" departPos="5.10" departSpeed="0.00" departDelay="0.67" arrival="1187.00" arrivalLane="b4[1][1][1]_0" arrivalPos="171.54" arrivalSpeed="15.40" duration="251.00" routeLength="2767.14" waitingTime="44.00" waitingCount="2" stopTime="0.00" timeLoss="74.20" rerouteNo="0" devices="vehroute_28 tripinfo_28 fcd_28" vType="DEFAULT_VEHTYPE" speedFactor="1.13" vaporized=""/>
    <tripinfo id="27" depart="917.00" departLane="a210_0" departPos="5.10" departSpeed="0.00" departDelay="0.19" arrival="1191.00" arrivalLane="b4[1][1][1]_0" arrivalPos="171.54" arrivalSpeed="13.09" duration="274.00" routeLength="2767.14" waitingTime="41.00" waitingCount="2" stopTime="0.00" timeLoss="62.96" rerouteNo="0" devices="vehroute_27 tripinfo_27 fcd_27" vType="DEFAULT_VEHTYPE" speedFactor="0.95" vaporized=""/>
    <tripinfo id="29" depart="955.00" departLane="a210_0" departPos="5.10" departSpeed="0.00" departDelay="0.83" arrival="1194.00" arrivalLane="b4[1][1][1]_0" arrivalPos="171.54" arrivalSpeed="12.69" duration="239.00" routeLength="2767.14" waitingTime="4.00" waitingCount="1" stopTime="0.00" timeLoss="23.57" rerouteNo="0" devices="vehroute_29 tripinfo_29 fcd_29" vType="DEFAULT_VEHTYPE" speedFactor="0.93" vaporized=""/>
    <tripinfo id="30" depart="1055.00" departLane="a210_0" departPos="5.10" departSpeed="0.00" departDelay="0.84" arrival="1320.00" arrivalLane="b4[1][1][1]_0" arrivalPos="171.54" arrivalSpeed="15.92" duration="265.00" routeLength="2764.18" waitingTime="56.00" waitingCount="4" stopTime="0.00" timeLoss="94.74" rerouteNo="0" devices="vehroute_30 tripinfo_30 fcd_30" vType="DEFAULT_VEHTYPE" speedFactor="1.18" vaporized=""/>
    <tripinfo id="31" depart="1064.00" departLane="a210_0" departPos="5.10" departSpeed="0.00" departDelay="0.40" arrival="1322.00" arrivalLane="b4[1][1][1]_0" arrivalPos="171.54" arrivalSpeed="15.48" duration="258.00" routeLength="2767.14" waitingTime="48.00" waitingCount="3" stopTime="0.00" timeLoss="84.18" rerouteNo="0" devices="vehroute_31 tripinfo_31 fcd_31" vType="DEFAULT_VEHTYPE" speedFactor="1.15" vaporized=""/>
    <tripinfo id="33" depart="1136.00" departLane="a210_0" departPos="5.10" departSpeed="0.00" departDelay="0.54" arrival="1327.00" arrivalLane="b4[1][1][1]_0" arrivalPos="171.54" arrivalSpeed="16.08" duration="191.00" routeLength="2767.14" waitingTime="1.00" waitingCount="1" stopTime="0.00" timeLoss="19.81" rerouteNo="0" devices="vehroute_33 tripinfo_33 fcd_33" vType="DEFAULT_VEHTYPE" speedFactor="1.17" vaporized=""/>
    <tripinfo id="32" depart="1068.00" departLane="a210_0" departPos="5.10" departSpeed="0.00" departDelay="0.47" arrival="1383.00" arrivalLane="b17[1]_0" arrivalPos="187.21" arrivalSpeed="13.51" duration="315.00" routeLength="2779.71" waitingTime="77.00" waitingCount="4" stopTime="0.00" timeLoss="112.14" rerouteNo="0" devices="vehroute_32 tripinfo_32 fcd_32" vType="DEFAULT_VEHTYPE" speedFactor="1.01" vaporized=""/>
    <tripinfo id="34" depart="1169.00" departLane="a210_0" departPos="5.10" departSpeed="0.00" departDelay="0.17" arrival="1507.00" arrivalLane="b17[1]_0" arrivalPos="187.21" arrivalSpeed="12.81" duration="338.00" routeLength="2779.71" waitingTime="100.00" waitingCount="3" stopTime="0.00" timeLoss="133.78" rerouteNo="0" devices="vehroute_34 tripinfo_34 fcd_34" vType="DEFAULT_VEHTYPE" speedFactor="0.99" vaporized=""/>
    <tripinfo id="35" depart="1259.00" departLane="a210_0" departPos="5.10" departSpeed="0.00" departDelay="0.07" arrival="1509.00" arrivalLane="b17[1]_0" arrivalPos="187.21" arrivalSpeed="12.91" duration="250.00" routeLength="2779.71" waitingTime="7.00" waitingCount="2" stopTime="0.00" timeLoss="49.38" rerouteNo="0" devices="vehroute_35 tripinfo_35 fcd_35" vType="DEFAULT_VEHTYPE" speedFactor="1.02" vaporized=""/>
    <tripinfo id="36" depart="1272.00" departLane="a210_0" departPos="5.10" departSpeed="0.00" departDelay="0.29" arrival="1513.00" arrivalLane="b17[1]_0" arrivalPos="187.21" arrivalSpeed="12.31" duration="241.00" routeLength="2779.71" waitingTime="0.00" waitingCount="0" stopTime="0.00" timeLoss="31.77" rerouteNo="0" devices="vehroute_36 tripinfo_36 fcd_36" vType="DEFAULT_VEHTYPE" speedFactor="0.97" vaporized=""/>
    <tripinfo id="39" depart="1375.00" departLane="a210_0" departPos="5.10" departSpeed="0.00" departDelay="0.02" arrival="1638.00" arrivalLane="b17[1]_0" arrivalPos="187.21" arrivalSpeed="12.25" duration="263.00" routeLength="2779.71" waitingTime="6.00" waitingCount="2" stopTime="0.00" timeLoss="36.47" rerouteNo="0" devices="vehroute_39 tripinfo_39 fcd_39" vType="DEFAULT_VEHTYPE" speedFactor="0.90" vaporized=""/>
    <tripinfo id="37" depart="1324.00" departLane="a210_0" departPos="5.10" departSpeed="0.00" departDelay="0.07" arrival="1656.00" arrivalLane="b4[1][1][1]_0" arrivalPos="171.54" arrivalSpeed="15.47" duration="332.00" routeLength="2767.14" waitingTime="119.00" waitingCount="4" stopTime="0.00" timeLoss="162.25" rerouteNo="0" devices="vehroute_37 tripinfo_37 fcd_37" vType="DEFAULT_VEHTYPE" speedFactor="1.18" vaporized=""/>
    <tripinfo id="38" depart="1354.00" departLane="a210_0" departPos="5.10" departSpeed="0.00" departDelay="0.80" arrival="1658.00" arrivalLane="b4[1][1][1]_0" arrivalPos="171.54" arrivalSpeed="14.68" duration="304.00" routeLength="2764.18" waitingTime="91.00" waitingCount="3" stopTime="0.00" timeLoss="122.76" rerouteNo="0" devices="vehroute_38 tripinfo_38 fcd_38" vType="DEFAULT_VEHTYPE" speedFactor="1.10" vaporized=""/>
    <tripinfo id="40" depart="1421.00" departLane="a210_0" departPos="5.10" departSpeed="0.00" departDelay="0.89" arrival="1751.00" arrivalLane="b17[1]_0" arrivalPos="187.21" arrivalSpeed="13.75" duration="330.00" routeLength="2779.71" waitingTime="101.00" waitingCount="3" stopTime="0.00" timeLoss="132.74" rerouteNo="0" devices="vehroute_40 tripinfo_40 fcd_40" vType="DEFAULT_VEHTYPE" speedFactor="1.03" vaporized=""/>
    <tripinfo id="41" depart="1491.00" departLane="a210_0" departPos="5.10" departSpeed="0.00" departDelay="0.13" arrival="1755.00" arrivalLane="b17[1]_0" arrivalPos="187.21" arrivalSpeed="13.15" duration="264.00" routeLength="2779.71" waitingTime="11.00" waitingCount="2" stopTime="0.00" timeLoss="51.62" rerouteNo="0" devices="vehroute_41 tripinfo_41 fcd_41" vType="DEFAULT_VEHTYPE" speedFactor="0.96" vaporized=""/>
    <tripinfo id="42" depart="1499.00" departLane="a210_0" departPos="5.10" departSpeed="0.00" departDelay="0.85" arrival="1795.00" arrivalLane="b4[1][1][1]_0" arrivalPos="171.54" arrivalSpeed="14.17" duration="296.00" routeLength="2767.14" waitingTime="88.00" waitingCount="2" stopTime="0.00" timeLoss="112.75" rerouteNo="0" devices="vehroute_42 tripinfo_42 fcd_42" vType="DEFAULT_VEHTYPE" speedFactor="1.09" vaporized=""/>
    <tripinfo id="43" depart="1576.00" departLane="a210_0" departPos="5.10" departSpeed="0.00" departDelay="0.63" arrival="1873.00" arrivalLane="b17[1]_0" arrivalPos="187.21" arrivalSpeed="14.08" duration="297.00" routeLength="2779.71" waitingTime="60.00" waitingCount="3" stopTime="0.00" timeLoss="100.91" rerouteNo="0" devices="vehroute_43 tripinfo_43 fcd_43" vType="DEFAULT_VEHTYPE" speedFactor="1.04" vaporized=""/>
    <tripinfo id="44" depart="1636.00" departLane="a210_0" departPos="5.10" departSpeed="0.00" departDelay="0.24" arrival="1876.00" arrivalLane="b17[1]_0" arrivalPos="187.21" arrivalSpeed="13.22" duration="240.00" routeLength="2779.71" waitingTime="10.00" waitingCount="2" stopTime="0.00" timeLoss="44.11" rerouteNo="0" devices="vehroute_44 tripinfo_44 fcd_44" vType="DEFAULT_VEHTYPE" speedFactor="1.04" vaporized=""/>
    <tripinfo id="45" depart="1655.00" departLane="a210_0" departPos="5.10" departSpeed="0.00" departDelay="0.99" arrival="1950.00" arrivalLane="b4[1][1][1]_0" arrivalPos="171.54" arrivalSpeed="14.94" duration="295.00" routeLength="2767.14" waitingTime="89.00" waitingCount="2" stopTime="0.00" timeLoss="110.42" rerouteNo="0" devices="vehroute_45 tripinfo_45 fcd_45" vType="DEFAULT_VEHTYPE" speedFactor="1.09" vaporized=""/>
    <tripinfo id="47" depart="1714.00" departLane="a210_0" departPos="5.10" departSpeed="0.00" departDelay="0.33" arrival="1978.00" arrivalLane="b4[1][1][1]_0" arrivalPos="171.54" arrivalSpeed="11.86" duration="264.00" routeLength="2767.14" waitingTime="18.00" waitingCount="2" stopTime="0.00" timeLoss="41.65" rerouteNo="0" devices="vehroute_47 tripinfo_47 fcd_47" vType="DEFAULT_VEHTYPE" speedFactor="0.90" vaporized=""/>
    <tripinfo id="46" depart="1662.00" departLane="a210_0" departPos="5.10" departSpeed="0.00" departDelay="0.68" arrival="2000.00" arrivalLane="b17[1]_0" arrivalPos="187.21" arrivalSpeed="13.19" duration="338.00" routeLength="2779.71" waitingTime="99.00" waitingCount="3" stopTime="0.00" timeLoss="133.45" rerouteNo="0" devices="vehroute_46 tripinfo_46 fcd_46" vType="DEFAULT_VEHTYPE" speedFactor="1.00" vaporized=""/>
    <tripinfo id="52" depart="1867.00" departLane="a210_0" departPos="5.10" departSpeed="0.00" departDelay="0.73" arrival="2131.00" arrivalLane="b4[1][1][1]_0" arrivalPos="171.54" arrivalSpeed="13.90" duration="264.00" routeLength="2767.14" waitingTime="42.00" waitingCount="2" stopTime="0.00" timeLoss="66.56" rerouteNo="0" devices="vehroute_52 tripinfo_52 fcd_52" vType="DEFAULT_VEHTYPE" speedFactor="1.02" vaporized=""/>
    <tripinfo id="50" depart="1760.00" departLane="a210_0" departPos="5.10" departSpeed="0.00" departDelay="2.33" arrival="2133.00" arrivalLane="b17[1]_0" arrivalPos="187.21" arrivalSpeed="10.68" duration="373.00" routeLength="2779.71" waitingTime="97.00" waitingCount="4" stopTime="0.00" timeLoss="135.15" rerouteNo="0" devices="vehroute_50 tripinfo_50 fcd_50" vType="DEFAULT_VEHTYPE" speedFactor="0.85" vaporized=""/>
    <tripinfo id="48" depart="1733.00" departLane="a210_0" departPos="5.10" departSpeed="0.00" departDelay="0.16" arrival="2135.00" arrivalLane="b4[1][1][1]_0" arrivalPos="171.54" arrivalSpeed="11.33" duration="402.00" routeLength="2767.14" waitingTime="136.00" waitingCount="4" stopTime="0.00" timeLoss="173.96" rerouteNo="0" devices="vehroute_48 tripinfo_48 fcd_48" vType="DEFAULT_VEHTYPE" speedFactor="0.88" vaporized=""/>
    <tripinfo id="49" depart="1757.00" departLane="a210_0" departPos="5.10" departSpeed="0.00" departDelay="0.73" arrival="2138.00" arrivalLane="b4[1][1][1]_0" arrivalPos="171.54" arrivalSpeed="10.99" duration="381.00" routeLength="2764.18" waitingTime="110.00" waitingCount="4" stopTime="0.00" timeLoss="145.69" rerouteNo="0" devices="vehroute_49 tripinfo_49 fcd_49" vType="DEFAULT_VEHTYPE" speedFactor="0.85" vaporized=""/>
    <tripinfo id="51" depart="1844.00" departLane="a210_0" departPos="5.10" departSpeed="0.00" departDelay="0.00" arrival="2236.00" arrivalLane="b17[1]_0" arrivalPos="187.21" arrivalSpeed="16.23" duration="392.00" routeLength="2779.71" waitingTime="169.00" waitingCount="6" stopTime="0.00" timeLoss="217.33" rerouteNo="0" devices="vehroute_51 tripinfo_51 fcd_51" vType="DEFAULT_VEHTYPE" speedFactor="1.17" vaporized=""/>
    <tripinfo id="54" depart="1928.00" departLane="a210_0" departPos="5.10" departSpeed="0.00" departDelay="0.88" arrival="2243.00" arrivalLane="b17[1]_0" arrivalPos="187.21" arrivalSpeed="13.06" duration="315.00" routeLength="2779.71" waitingTime="76.00" waitingCount="2" stopTime="0.00" timeLoss="111.12" rerouteNo="0" devices="vehroute_54 tripinfo_54 fcd_54" vType="DEFAULT_VEHTYPE" speedFactor="1.00" vaporized=""/>
    <tripinfo id="53" depart="1910.00" departLane="a210_0" departPos="5.10" departSpeed="0.00" departDelay="0.91" arrival="2269.00" arrivalLane="b4[1][1][1]_0" arrivalPos="171.54" arrivalSpeed="14.17" duration="359.00" routeLength="2767.14" waitingTime="130.00" waitingCount="5" stopTime="0.00" timeLoss="176.34" rerouteNo="0" devices="vehroute_53 tripinfo_53 fcd_53" vType="DEFAULT_VEHTYPE" speedFactor="1.10" vaporized=""/>
    <tripinfo id="55" depart="1973.00" departLane="a210_0" departPos="5.10" departSpeed="0.00" departDelay="0.35" arrival="2272.00" arrivalLane="b4[1][1][1]_0" arrivalPos="171.54" arrivalSpeed="13.81" duration="299.00" routeLength="2764.18" waitingTime="62.00" waitingCount="3" stopTime="0.00" timeLoss="98.17" rerouteNo="0" devices="vehroute_55 tripinfo_55 fcd_55" vType="DEFAULT_VEHTYPE" speedFactor="1.00" vaporized=""/>
    <tripinfo id="56" depart="2097.00" departLane="a210_0" departPos="5.10" departSpeed="0.00" departDelay="0.28" arrival="2374.00" arrivalLane="b17[1]_0" arrivalPos="187.21" arrivalSpeed="12.15" duration="277.00" routeLength="2779.71" waitingTime="17.00" waitingCount="3" stopTime="0.00" timeLoss="50.88" rerouteNo="0" devices="vehroute_56 tripinfo_56 fcd_56" vType="DEFAULT_VEHTYPE" speedFactor="0.90" vaporized=""/>
    <tripinfo id="57" depart="2167.00" departLane="a210_0" departPos="5.10" departSpeed="0.00" departDelay="0.23" arrival="2411.00" arrivalLane="b4[1][1][1]_0" arrivalPos="171.54" arrivalSpeed="14.78" duration="244.00" routeLength="2767.14" waitingTime="40.00" waitingCount="3" stopTime="0.00" timeLoss="68.19" rerouteNo="0" devices="vehroute_57 tripinfo_57 fcd_57" vType="DEFAULT_VEHTYPE" speedFactor="1.14" vaporized=""/>
    <tripinfo id="58" depart="2211.00" departLane="a210_0" departPos="5.10" departSpeed="0.00" departDelay="0.84" arrival="2490.00" arrivalLane="b17[1]_0" arrivalPos="187.21" arrivalSpeed="13.26" duration="279.00" routeLength="2779.71" waitingTime="43.00" waitingCount="4" stopTime="0.00" timeLoss="80.62" rerouteNo="0" devices="vehroute_58 tripinfo_58 fcd_58" vType="DEFAULT_VEHTYPE" speedFactor="1.02" vaporized=""/>
    <tripinfo id="59" depart="2215.00" departLane="a210_0" departPos="5.10" departSpeed="0.00" departDelay="0.95" arrival="2494.00" arrivalLane="b17[1]_0" arrivalPos="187.21" arrivalSpeed="12.49" duration="279.00" routeLength="2779.71" waitingTime="28.00" waitingCount="3" stopTime="0.00" timeLoss="68.15" rerouteNo="0" devices="vehroute_59 tripinfo_59 fcd_59" vType="DEFAULT_VEHTYPE" speedFactor="0.97" vaporized=""/>
    <tripinfo id="60" depart="2249.00" departLane="a210_0" departPos="5.10" departSpeed="0.00" departDelay="0.21" arrival="2575.00" arrivalLane="b4[1][1][1]_0" arrivalPos="171.54" arrivalSpeed="14.88" duration="326.00" routeLength="2767.14" waitingTime="110.00" waitingCount="3" stopTime="0.00" timeLoss="140.72" rerouteNo="0" devices="vehroute_60 tripinfo_60 fcd_60" vType="DEFAULT_VEHTYPE" speedFactor="1.08" vaporized=""/>
    <tripinfo id="63" depart="2319.00" departLane="a210_0" departPos="5.10" departSpeed="0.00" departDelay="0.94" arrival="2589.00" arrivalLane="b4[1][1][1]_0" arrivalPos="171.54" arrivalSpeed="12.43" duration="270.00" routeLength="2764.18" waitingTime="40.00" waitingCount="2" stopTime="0.00" timeLoss="66.68" rerouteNo="0" devices="vehroute_63 tripinfo_63 fcd_63" vType="DEFAULT_VEHTYPE" speedFactor="0.99" vaporized=""/>
    <tripinfo id="64" depart="2364.00" departLane="a210_0" departPos="5.10" departSpeed="0.00" departDelay="0.68" arrival="2596.00" arrivalLane="b4[1][1][1]_0" arrivalPos="171.54" arrivalSpeed="12.10" duration="232.00" routeLength="2767.14" waitingTime="0.00" waitingCount="0" stopTime="0.00" timeLoss="18.41" rerouteNo="0" devices="vehroute_64 tripinfo_64 fcd_64" vType="DEFAULT_VEHTYPE" speedFactor="0.94" vaporized=""/>
    <tripinfo id="61" depart="2293.00" departLane="a210_0" departPos="5.10" departSpeed="0.00" departDelay="0.99" arrival="2608.00" arrivalLane="b17[1]_0" arrivalPos="187.21" arrivalSpeed="15.13" duration="315.00" routeLength="2779.71" waitingTime="90.00" waitingCount="5" stopTime="0.00" timeLoss="133.51" rerouteNo="0" devices="vehroute_61 tripinfo_61 fcd_61" vType="DEFAULT_VEHTYPE" speedFactor="1.12" vaporized=""/>
    <tripinfo id="62" depart="2296.00" departLane="a210_0" departPos="5.10" departSpeed="0.00" departDelay="2.07" arrival="2613.00" arrivalLane="b17[1]_0" arrivalPos="187.21" arrivalSpeed="13.23" duration="317.00" routeLength="2779.71" waitingTime="75.00" waitingCount="3" stopTime="0.00" timeLoss="116.46" rerouteNo="0" devices="vehroute_62 tripinfo_62 fcd_62" vType="DEFAULT_VEHTYPE" speedFactor="1.02" vaporized=""/>
    <tripinfo id="65" depart="2374.00" departLane="a210_0" departPos="5.10" departSpeed="0.00" departDelay="0.33" arrival="2617.00" arrivalLane="b4[1][1][1]_0" arrivalPos="171.54" arrivalSpeed="11.69" duration="243.00" routeLength="2767.14" waitingTime="0.00" waitingCount="0" stopTime="0.00" timeLoss="16.18" rerouteNo="0" devices="vehroute_65 tripinfo_65 fcd_65" vType="DEFAULT_VEHTYPE" speedFactor="0.88" vaporized=""/>
    <tripinfo id="66" depart="2378.00" departLane="a210_0" departPos="5.10" departSpeed="0.00" departDelay="0.91" arrival="2626.00" arrivalLane="b17[1]_0" arrivalPos="187.21" arrivalSpeed="12.22" duration="248.00" routeLength="2779.71" waitingTime="0.00" waitingCount="0" stopTime="0.00" timeLoss="23.61" rerouteNo="0" devices="vehroute_66 tripinfo_66 fcd_66" vType="DEFAULT_VEHTYPE" speedFactor="0.91" vaporized=""/>