<?xml version="1.0" encoding="UTF-8"?>

<!-- generated on 2025-03-21 17:36:07 by Eclipse SUMO sumo Version 1.21.0
<sumoConfiguration xmlns:xsi="http://www.w3.org/2001/XMLSchema-instance" xsi:noNamespaceSchemaLocation="http://sumo.dlr.de/xsd/sumoConfiguration.xsd">

    <input>
        <net-file value="${STATICPATH}/joined_lanes.net.xml"/>
        <route-files value="${SIMULATIONPATH}/generatedRoutes.rou.xml"/>
        <additional-files value="${STATICPATH}/detectors.add.xml,${STATICPATH}/joined_vtypes.add.xml,${STATICPATH}/joined_tls.add.xml"/>
    </input>

    <output>
        <fcd-output value="${SIMULATIONPATH}/fcd.xml"/>
        <queue-output value="${SIMULATIONPATH}/queue.xml"/>
        <summary-output value="${SIMULATIONPATH}/summary.xml"/>
        <tripinfo-output value="${SIMULATIONPATH}/tripinfos.xml"/>
        <vehroute-output value="${SIMULATIONPATH}/vehroute.xml"/>
        <save-state.prefix value="configs\state"/>
    </output>

    <processing>
        <ignore-junction-blocker value="1"/>
        <ignore-route-errors value="true"/>
        <time-to-teleport value="-1"/>
    </processing>

    <report>
        <log value="C:/Users/fabio/Desktop/sumo_log.txt"/>
        <no-step-log value="true"/>
    </report>

    <emissions>
        <phemlight-path value="configs\./PHEMlight/"/>
    </emissions>

    <traci_server>
        <remote-port value="60105"/>
    </traci_server>

</sumoConfiguration>
-->

<tripinfos xmlns:xsi="http://www.w3.org/2001/XMLSchema-instance" xsi:noNamespaceSchemaLocation="http://sumo.dlr.de/xsd/tripinfo_file.xsd">
    <tripinfo id="0" depart="38.00" departLane="a78[0]_0" departPos="5.10" departSpeed="0.00" departDelay="0.46" arrival="220.00" arrivalLane="b53a_0" arrivalPos="257.19" arrivalSpeed="13.68" duration="182.00" routeLength="1975.46" waitingTime="19.00" waitingCount="2" stopTime="0.00" timeLoss="45.59" rerouteNo="0" devices="vehroute_0 tripinfo_0 fcd_0" vType="DEFAULT_VEHTYPE" speedFactor="1.06" vaporized=""/>
    <tripinfo id="3" depart="137.00" departLane="a78[0]_0" departPos="5.10" departSpeed="0.00" departDelay="0.12" arrival="307.00" arrivalLane="b2[1][1][1]b_0" arrivalPos="325.74" arrivalSpeed="14.07" duration="170.00" routeLength="1757.08" waitingTime="28.00" waitingCount="2" stopTime="0.00" timeLoss="51.36" rerouteNo="0" devices="vehroute_3 tripinfo_3 fcd_3" vType="DEFAULT_VEHTYPE" speedFactor="1.08" vaporized=""/>
    <tripinfo id="2" depart="129.00" departLane="a78[0]_0" departPos="5.10" departSpeed="0.00" departDelay="0.94" arrival="308.00" arrivalLane="b2[1][1][1]b_0" arrivalPos="325.74" arrivalSpeed="13.31" duration="179.00" routeLength="1750.65" waitingTime="30.00" waitingCount="2" stopTime="0.00" timeLoss="52.71" rerouteNo="0" devices="vehroute_2 tripinfo_2 fcd_2" vType="DEFAULT_VEHTYPE" speedFactor="1.01" vaporized=""/>
    <tripinfo id="1" depart="46.00" departLane="a78[0]_0" departPos="5.10" departSpeed="0.00" departDelay="0.23" arrival="313.00" arrivalLane="b2[1][1][1]b_0" arrivalPos="325.74" arrivalSpeed="12.19" duration="267.00" routeLength="1757.08" waitingTime="108.00" waitingCount="2" stopTime="0.00" timeLoss="130.36" rerouteNo="0" devices="vehroute_1 tripinfo_1 fcd_1" vType="DEFAULT_VEHTYPE" speedFactor="0.94" vaporized=""/>
    <tripinfo id="4" depart="158.00" departLane="a2_0" departPos="5.10" departSpeed="0.00" departDelay="0.55" arrival="457.00" arrivalLane="b3[1]b_0" arrivalPos="239.77" arrivalSpeed="13.32" duration="299.00" routeLength="3227.72" waitingTime="39.00" waitingCount="3" stopTime="0.00" timeLoss="70.58" rerouteNo="0" devices="vehroute_4 tripinfo_4 fcd_4" vType="DEFAULT_VEHTYPE" speedFactor="1.03" vaporized=""/>
    <tripinfo id="6" depart="194.00" departLane="a195_0" departPos="5.10" departSpeed="0.00" departDelay="0.11" arrival="469.00" arrivalLane="b4[1][1][0]_0" arrivalPos="170.25" arrivalSpeed="13.66" duration="275.00" routeLength="2974.50" waitingTime="30.00" waitingCount="2" stopTime="0.00" timeLoss="67.47" rerouteNo="0" devices="vehroute_6 tripinfo_6 fcd_6" vType="DEFAULT_VEHTYPE" speedFactor="1.05" vaporized=""/>
    <tripinfo id="5" depart="173.00" departLane="a210_0" departPos="5.10" departSpeed="0.00" departDelay="0.81" arrival="496.00" arrivalLane="b9_0" arrivalPos="340.87" arrivalSpeed="10.78" duration="323.00" routeLength="3293.82" waitingTime="0.00" waitingCount="0" stopTime="0.00" timeLoss="33.20" rerouteNo="0" devices="vehroute_5 tripinfo_5 fcd_5" vType="DEFAULT_VEHTYPE" speedFactor="0.83" vaporized=""/>
    <tripinfo id="12" depart="368.00" departLane="a78[0]_0" departPos="5.10" departSpeed="0.00" departDelay="0.26" arrival="566.00" arrivalLane="b53a_0" arrivalPos="257.19" arrivalSpeed="13.57" duration="198.00" routeLength="1975.46" waitingTime="31.00" waitingCount="2" stopTime="0.00" timeLoss="58.88" rerouteNo="0" devices="vehroute_12 tripinfo_12 fcd_12" vType="DEFAULT_VEHTYPE" speedFactor="1.05" vaporized=""/>
    <tripinfo id="7" depart="248.00" departLane="a2_0" departPos="5.10" departSpeed="0.00" departDelay="0.63" arrival="596.00" arrivalLane="b3[1]b_0" arrivalPos="239.77" arrivalSpeed="12.26" duration="348.00" routeLength="3217.77" waitingTime="45.00" waitingCount="3" stopTime="0.00" timeLoss="83.23" rerouteNo="0" devices="vehroute_7 tripinfo_7 fcd_7" vType="DEFAULT_VEHTYPE" speedFactor="0.89" vaporized=""/>
    <tripinfo id="10" depart="298.00" departLane="a203[0]_0" departPos="5.10" departSpeed="0.00" departDelay="0.58" arrival="610.00" arrivalLane="b2[1][1][1]b_0" arrivalPos="325.74" arrivalSpeed="14.51" duration="312.00" routeLength="2513.32" waitingTime="96.00" waitingCount="3" stopTime="0.00" timeLoss="143.93" rerouteNo="0" devices="vehroute_10 tripinfo_10 fcd_10" vType="DEFAULT_VEHTYPE" speedFactor="1.09" vaporized=""/>
    <tripinfo id="8" depart="250.00" departLane="a203[0]_0" departPos="5.10" departSpeed="0.00" departDelay="0.68" arrival="616.00" arrivalLane="b2[1][1][1]b_0" arrivalPos="325.74" arrivalSpeed="11.83" duration="366.00" routeLength="2513.32" waitingTime="138.00" waitingCount="4" stopTime="0.00" timeLoss="171.68" rerouteNo="0" devices="vehroute_8 tripinfo_8 fcd_8" vType="DEFAULT_VEHTYPE" speedFactor="0.94" vaporized=""/>
    <tripinfo id="17" depart="411.00" departLane="a78[0]_0" departPos="5.10" departSpeed="0.00" departDelay="0.76" arrival="622.00" arrivalLane="b53a_0" arrivalPos="257.19" arrivalSpeed="13.02" duration="211.00" routeLength="1975.46" waitingTime="35.00" waitingCount="1" stopTime="0.00" timeLoss="57.22" rerouteNo="0" devices="vehroute_17 tripinfo_17 fcd_17" vType="DEFAULT_VEHTYPE" speedFactor="0.94" vaporized=""/>
    <tripinfo id="16" depart="399.00" departLane="a210_0" departPos="5.10" departSpeed="0.00" departDelay="0.09" arrival="623.00" arrivalLane="b70_0" arrivalPos="60.87" arrivalSpeed="10.91" duration="224.00" routeLength="2127.23" waitingTime="21.00" waitingCount="3" stopTime="0.00" timeLoss="48.33" rerouteNo="0" devices="vehroute_16 tripinfo_16 fcd_16" vType="DEFAULT_VEHTYPE" speedFactor="0.88" vaporized=""/>
    <tripinfo id="9" depart="276.00" departLane="a203[0]_0" departPos="5.10" departSpeed="0.00" departDelay="0.90" arrival="626.00" arrivalLane="b2[1][1][1]b_0" arrivalPos="325.74" arrivalSpeed="11.37" duration="350.00" routeLength="2513.32" waitingTime="99.00" waitingCount="3" stopTime="0.00" timeLoss="136.32" rerouteNo="0" devices="vehroute_9 tripinfo_9 fcd_9" vType="DEFAULT_VEHTYPE" speedFactor="0.86" vaporized=""/>
    <tripinfo id="14" depart="381.00" departLane="a34_0" departPos="5.10" departSpeed="0.00" departDelay="0.50" arrival="654.00" arrivalLane="a203[1]b_0" arrivalPos="0.20" arrivalSpeed="13.08" duration="273.00" routeLength="2557.80" waitingTime="35.00" waitingCount="3" stopTime="0.00" timeLoss="83.26" rerouteNo="0" devices="vehroute_14 tripinfo_14 fcd_14" vType="DEFAULT_VEHTYPE" speedFactor="0.99" vaporized=""/>
    <tripinfo id="11" depart="343.00" departLane="a204a[0]_0" departPos="5.10" departSpeed="0.00" departDelay="0.96" arrival="687.00" arrivalLane="a190_0" arrivalPos="221.75" arrivalSpeed="13.72" duration="344.00" routeLength="2763.41" waitingTime="107.00" waitingCount="3" stopTime="0.00" timeLoss="146.28" rerouteNo="0" devices="vehroute_11 tripinfo_11 fcd_11" vType="DEFAULT_VEHTYPE" speedFactor="1.03" vaporized=""/>
    <tripinfo id="13" depart="380.00" departLane="a2_0" departPos="5.10" departSpeed="0.00" departDelay="0.68" arrival="713.00" arrivalLane="b3[1]b_0" arrivalPos="239.77" arrivalSpeed="15.55" duration="333.00" routeLength="3217.77" waitingTime="86.00" waitingCount="4" stopTime="0.00" timeLoss="123.87" rerouteNo="0" devices="vehroute_13 tripinfo_13 fcd_13" vType="DEFAULT_VEHTYPE" speedFactor="1.12" vaporized=""/>
    <tripinfo id="18" depart="451.00" departLane="a195_0" departPos="5.10" departSpeed="0.00" departDelay="0.16" arrival="732.00" arrivalLane="b4[1][1][0]_0" arrivalPos="170.25" arrivalSpeed="12.91" duration="281.00" routeLength="2974.50" waitingTime="14.00" waitingCount="2" stopTime="0.00" timeLoss="48.07" rerouteNo="0" devices="vehroute_18 tripinfo_18 fcd_18" vType="DEFAULT_VEHTYPE" speedFactor="0.94" vaporized=""/>
    <tripinfo id="15" depart="389.00" departLane="a203[0]_0" departPos="5.10" departSpeed="0.00" departDelay="0.40" arrival="752.00" arrivalLane="b2[1][1][1]b_0" arrivalPos="325.74" arrivalSpeed="12.46" duration="363.00" routeLength="2513.32" waitingTime="131.00" waitingCount="4" stopTime="0.00" timeLoss="165.64" rerouteNo="0" devices="vehroute_15 tripinfo_15 fcd_15" vType="DEFAULT_VEHTYPE" speedFactor="0.93" vaporized=""/>
    <tripinfo id="19" depart="480.00" departLane="a204a[0]_0" departPos="5.10" departSpeed="0.00" departDelay="0.68" arrival="769.00" arrivalLane="a190_0" arrivalPos="221.75" arrivalSpeed="15.45" duration="289.00" routeLength="2760.45" waitingTime="79.00" waitingCount="1" stopTime="0.00" timeLoss="114.45" rerouteNo="0" devices="vehroute_19 tripinfo_19 fcd_19" vType="DEFAULT_VEHTYPE" speedFactor="1.16" vaporized=""/>
    <tripinfo id="21" depart="590.00" departLane="a78[0]_0" departPos="5.10" departSpeed="0.00" departDelay="0.74" arrival="786.00" arrivalLane="b2[1][1][1]b_0" arrivalPos="325.74" arrivalSpeed="12.88" duration="196.00" routeLength="1757.08" waitingTime="53.00" waitingCount="1" stopTime="0.00" timeLoss="69.28" rerouteNo="0" devices="vehroute_21 tripinfo_21 fcd_21" vType="DEFAULT_VEHTYPE" speedFactor="1.01" vaporized=""/>
    <tripinfo id="22" depart="651.00" departLane="a203[0]_0" departPos="5.10" departSpeed="0.00" departDelay="0.86" arrival="876.00" arrivalLane="b2[1][1][1]b_0" arrivalPos="325.74" arrivalSpeed="12.45" duration="225.00" routeLength="2513.32" waitingTime="14.00" waitingCount="1" stopTime="0.00" timeLoss="37.62" rerouteNo="0" devices="vehroute_22 tripinfo_22 fcd_22" vType="DEFAULT_VEHTYPE" speedFactor="0.97" vaporized=""/>
    <tripinfo id="20" depart="564.00" departLane="a204a[0]_0" departPos="5.10" departSpeed="0.00" departDelay="0.10" arrival="903.00" arrivalLane="a190_0" arrivalPos="221.75" arrivalSpeed="13.40" duration="339.00" routeLength="2760.45" waitingTime="105.00" waitingCount="3" stopTime="0.00" timeLoss="140.56" rerouteNo="0" devices="vehroute_20 tripinfo_20 fcd_20" vType="DEFAULT_VEHTYPE" speedFactor="1.02" vaporized=""/>
    <tripinfo id="23" depart="796.00" departLane="a203[0]_0" departPos="5.10" departSpeed="0.00" departDelay="0.17" arrival="1112.00" arrivalLane="b2[1][1][1]b_0" arrivalPos="325.74" arrivalSpeed="12.16" duration="316.00" routeLength="2513.32" waitingTime="83.00" waitingCount="2" stopTime="0.00" timeLoss="110.64" rerouteNo="0" devices="vehroute_23 tripinfo_23 fcd_23" vType="DEFAULT_VEHTYPE" speedFactor="0.89" vaporized=""/>
    <tripinfo id="25" depart="821.00" departLane="a203[0]_0" departPos="5.10" departSpeed="0.00" departDelay="0.77" arrival="1113.00" arrivalLane="b2[1][1][1]b_0" arrivalPos="325.74" arrivalSpeed="11.06" duration="292.00" routeLength="2513.32" waitingTime="57.00" waitingCount="2" stopTime="0.00" timeLoss="82.80" rerouteNo="0" devices="vehroute_25 tripinfo_25 fcd_25" vType="DEFAULT_VEHTYPE" speedFactor="0.87" vaporized=""/>
    <tripinfo id="30" depart="970.00" departLane="a78[0]_0" departPos="5.10" departSpeed="0.00" departDelay="0.41" arrival="1152.00" arrivalLane="b53a_0" arrivalPos="257.19" arrivalSpeed="15.87" duration="182.00" routeLength="1972.63" waitingTime="31.00" waitingCount="2" stopTime="0.00" timeLoss="59.29" rerouteNo="0" devices="vehroute_30 tripinfo_30 fcd_30" vType="DEFAULT_VEHTYPE" speedFactor="1.18" vaporized=""/>
    <tripinfo id="27" depart="920.00" departLane="a78[0]_0" departPos="5.10" departSpeed="0.00" departDelay="0.51" arrival="1172.00" arrivalLane="b2[1][1][1]b_0" arrivalPos="325.74" arrivalSpeed="12.63" duration="252.00" routeLength="1757.08" waitingTime="95.00" waitingCount="2" stopTime="0.00" timeLoss="116.60" rerouteNo="0" devices="vehroute_27 tripinfo_27 fcd_27" vType="DEFAULT_VEHTYPE" speedFactor="0.95" vaporized=""/>
    <tripinfo id="24" depart="818.00" departLane="a204a[0]_0" departPos="5.10" departSpeed="0.00" departDelay="0.93" arrival="1217.00" arrivalLane="a190_0" arrivalPos="221.75" arrivalSpeed="11.08" duration="399.00" routeLength="2760.45" waitingTime="110.00" waitingCount="5" stopTime="0.00" timeLoss="154.15" rerouteNo="0" devices="vehroute_24 tripinfo_24 fcd_24" vType="DEFAULT_VEHTYPE" speedFactor="0.83" vaporized=""/>
    <tripinfo id="32" depart="1006.00" departLane="a203[0]_0" departPos="5.10" departSpeed="0.00" departDelay="0.28" arrival="1227.00" arrivalLane="b2[1][1][1]b_0" arrivalPos="325.74" arrivalSpeed="13.10" duration="221.00" routeLength="2513.32" waitingTime="17.00" waitingCount="1" stopTime="0.00" timeLoss="38.82" rerouteNo="0" devices="vehroute_32 tripinfo_32 fcd_32" vType="DEFAULT_VEHTYPE" speedFactor="1.01" vaporized=""/>
    <tripinfo id="29" depart="939.00" departLane="a210_0" departPos="5.10" departSpeed="0.00" departDelay="0.43" arrival="1228.00" arrivalLane="b9_0" arrivalPos="340.87" arrivalSpeed="12.43" duration="289.00" routeLength="3293.82" waitingTime="1.00" waitingCount="1" stopTime="0.00" timeLoss="31.24" rerouteNo="0" devices="vehroute_29 tripinfo_29 fcd_29" vType="DEFAULT_VEHTYPE" speedFactor="0.93" vaporized=""/>
    <tripinfo id="26" depart="912.00" departLane="a210_0" departPos="5.10" departSpeed="0.00" departDelay="0.99" arrival="1274.00" arrivalLane="b9_0" arrivalPos="340.87" arrivalSpeed="12.26" duration="362.00" routeLength="3293.82" waitingTime="53.00" waitingCount="3" stopTime="0.00" timeLoss="100.47" rerouteNo="0" devices="vehroute_26 tripinfo_26 fcd_26" vType="DEFAULT_VEHTYPE" speedFactor="0.92" vaporized=""/>
    <tripinfo id="28" depart="931.00" departLane="a2_0" departPos="5.10" departSpeed="0.00" departDelay="0.65" arrival="1307.00" arrivalLane="b3[1]b_0" arrivalPos="239.77" arrivalSpeed="15.09" duration="376.00" routeLength="3217.77" waitingTime="117.00" waitingCount="5" stopTime="0.00" timeLoss="168.81" rerouteNo="0" devices="vehroute_28 tripinfo_28 fcd_28" vType="DEFAULT_VEHTYPE" speedFactor="1.13" vaporized=""/>
    <tripinfo id="34" depart="1153.00" departLane="a78[0]_0" departPos="5.10" departSpeed="0.00" departDelay="0.78" arrival="1314.00" arrivalLane="b53a_0" arrivalPos="257.19" arrivalSpeed="13.25" duration="161.00" routeLength="1975.46" waitingTime="0.00" waitingCount="0" stopTime="0.00" timeLoss="15.75" rerouteNo="0" devices="vehroute_34 tripinfo_34 fcd_34" vType="DEFAULT_VEHTYPE" speedFactor="0.99" vaporized=""/>
    <tripinfo id="31" depart="986.00" departLane="a195_0" departPos="5.10" departSpeed="0.00" departDelay="0.35" arrival="1321.00" arrivalLane="b4[1][1][0]_0" arrivalPos="170.25" arrivalSpeed="14.98" duration="335.00" routeLength="2974.50" waitingTime="107.00" waitingCount="3" stopTime="0.00" timeLoss="146.94" rerouteNo="0" devices="vehroute_31 tripinfo_31 fcd_31" vType="DEFAULT_VEHTYPE" speedFactor="1.15" vaporized=""/>
    <tripinfo id="33" depart="1141.00" departLane="a36_0" departPos="5.10" departSpeed="0.00" departDelay="0.08" arrival="1359.00" arrivalLane="b2[1][1][1]b_0" arrivalPos="325.74" arrivalSpeed="16.25" duration="218.00" routeLength="2191.69" waitingTime="45.00" waitingCount="3" stopTime="0.00" timeLoss="81.05" rerouteNo="0" devices="vehroute_33 tripinfo_33 fcd_33" vType="DEFAULT_VEHTYPE" speedFactor="1.17" vaporized=""/>
    <tripinfo id="35" depart="1160.00" departLane="a204a[0]_0" departPos="5.10" departSpeed="0.00" departDelay="0.02" arrival="1518.00" arrivalLane="a190_0" arrivalPos="221.75" arrivalSpeed="14.11" duration="358.00" routeLength="2763.41" waitingTime="121.00" waitingCount="3" stopTime="0.00" timeLoss="159.98" rerouteNo="0" devices="vehroute_35 tripinfo_35 fcd_35" vType="DEFAULT_VEHTYPE" speedFactor="1.02" vaporized=""/>
    <tripinfo id="40" depart="1400.00" departLane="a210_0" departPos="5.10" departSpeed="0.00" departDelay="0.85" arrival="1598.00" arrivalLane="b70_0" arrivalPos="60.87" arrivalSpeed="13.84" duration="198.00" routeLength="2127.23" waitingTime="21.00" waitingCount="3" stopTime="0.00" timeLoss="48.00" rerouteNo="0" devices="vehroute_40 tripinfo_40 fcd_40" vType="DEFAULT_VEHTYPE" speedFactor="1.03" vaporized=""/>
    <tripinfo id="38" depart="1391.00" departLane="a210_0" departPos="5.10" departSpeed="0.00" departDelay="0.14" arrival="1612.00" arrivalLane="b2[1][1][1]b_0" arrivalPos="325.74" arrivalSpeed="14.99" duration="221.00" routeLength="2611.68" waitingTime="22.00" waitingCount="2" stopTime="0.00" timeLoss="48.95" rerouteNo="0" devices="vehroute_38 tripinfo_38 fcd_38" vType="DEFAULT_VEHTYPE" speedFactor="1.10" vaporized=""/>
    <tripinfo id="37" depart="1354.00" departLane="a204a[0]_0" departPos="5.10" departSpeed="0.00" departDelay="0.43" arrival="1629.00" arrivalLane="a190_0" arrivalPos="221.75" arrivalSpeed="15.64" duration="275.00" routeLength="2760.45" waitingTime="60.00" waitingCount="3" stopTime="0.00" timeLoss="103.41" rerouteNo="0" devices="vehroute_37 tripinfo_37 fcd_37" vType="DEFAULT_VEHTYPE" speedFactor="1.18" vaporized=""/>
    <tripinfo id="36" depart="1278.00" departLane="a2_0" departPos="5.10" departSpeed="0.00" departDelay="0.57" arrival="1630.00" arrivalLane="b3[1]b_0" arrivalPos="239.77" arrivalSpeed="12.89" duration="352.00" routeLength="3217.77" waitingTime="67.00" waitingCount="4" stopTime="0.00" timeLoss="111.15" rerouteNo="0" devices="vehroute_36 tripinfo_36 fcd_36" vType="DEFAULT_VEHTYPE" speedFactor="0.97" vaporized=""/>
    <tripinfo id="41" depart="1413.00" departLane="a34_0" departPos="5.10" departSpeed="0.00" departDelay="0.38" arrival="1726.00" arrivalLane="a203[1]b_0" arrivalPos="0.20" arrivalSpeed="13.18" duration="313.00" routeLength="2554.84" waitingTime="65.00" waitingCount="4" stopTime="0.00" timeLoss="116.02" rerouteNo="0" devices="vehroute_41 tripinfo_41 fcd_41" vType="DEFAULT_VEHTYPE" speedFactor="0.96" vaporized=""/>
    <tripinfo id="42" depart="1484.00" departLane="a203[0]_0" departPos="5.10" departSpeed="0.00" departDelay="0.33" arrival="1737.00" arrivalLane="b2[1][1][1]b_0" arrivalPos="325.74" arrivalSpeed="14.52" duration="253.00" routeLength="2513.32" waitingTime="49.00" waitingCount="3" stopTime="0.00" timeLoss="85.17" rerouteNo="0" devices="vehroute_42 tripinfo_42 fcd_42" vType="DEFAULT_VEHTYPE" speedFactor="1.09" vaporized=""/>
    <tripinfo id="39" depart="1396.00" departLane="a203[0]_0" departPos="5.10" departSpeed="0.00" departDelay="0.66" arrival="1743.00" arrivalLane="b2[1][1][1]b_0" arrivalPos="325.74" arrivalSpeed="12.48" duration="347.00" routeLength="2513.32" waitingTime="108.00" waitingCount="3" stopTime="0.00" timeLoss="144.04" rerouteNo="0" devices="vehroute_39 tripinfo_39 fcd_39" vType="DEFAULT_VEHTYPE" speedFactor="0.90" vaporized=""/>
    <tripinfo id="44" depart="1596.00" departLane="a203[0]_0" departPos="5.10" departSpeed="0.00" departDelay="0.22" arrival="1862.00" arrivalLane="b2[1][1][1]b_0" arrivalPos="325.74" arrivalSpeed="13.27" duration="266.00" routeLength="2513.32" waitingTime="65.00" waitingCount="3" stopTime="0.00" timeLoss="91.02" rerouteNo="0" devices="vehroute_44 tripinfo_44 fcd_44" vType="DEFAULT_VEHTYPE" speedFactor="1.04" vaporized=""/>
    <tripinfo id="43" depart="1528.00" departLane="a204a[0]_0" departPos="5.10" departSpeed="0.00" departDelay="0.53" arrival="1935.00" arrivalLane="a190_0" arrivalPos="221.75" arrivalSpeed="13.40" duration="407.00" routeLength="2760.45" waitingTime="161.00" waitingCount="4" stopTime="0.00" timeLoss="211.87" rerouteNo="0" devices="vehroute_43 tripinfo_43 fcd_43" vType="DEFAULT_VEHTYPE" speedFactor="1.04" vaporized=""/>
    <tripinfo id="49" depart="1722.00" departLane="a78[0]_0" departPos="5.10" departSpeed="0.00" departDelay="0.28" arrival="1939.00" arrivalLane="b53a_0" arrivalPos="257.19" arrivalSpeed="11.04" duration="217.00" routeLength="1975.46" waitingTime="23.00" waitingCount="1" stopTime="0.00" timeLoss="47.04" rerouteNo="0" devices="vehroute_49 tripinfo_49 fcd_49" vType="DEFAULT_VEHTYPE" speedFactor="0.85" vaporized=""/>
    <tripinfo id="47" depart="1664.00" departLane="a204a[0]_0" departPos="5.10" departSpeed="0.00" departDelay="0.99" arrival="1940.00" arrivalLane="a190_0" arrivalPos="221.75" arrivalSpeed="11.93" duration="276.00" routeLength="2763.41" waitingTime="19.00" waitingCount="1" stopTime="0.00" timeLoss="50.34" rerouteNo="0" devices="vehroute_47 tripinfo_47 fcd_47" vType="DEFAULT_VEHTYPE" speedFactor="0.90" vaporized=""/>
    <tripinfo id="45" depart="1621.00" departLane="a2_0" departPos="5.10" departSpeed="0.00" departDelay="0.55" arrival="1991.00" arrivalLane="b3[1]b_0" arrivalPos="239.77" arrivalSpeed="14.60" duration="370.00" routeLength="3217.77" waitingTime="102.00" waitingCount="5" stopTime="0.00" timeLoss="154.55" rerouteNo="0" devices="vehroute_45 tripinfo_45 fcd_45" vType="DEFAULT_VEHTYPE" speedFactor="1.09" vaporized=""/>
    <tripinfo id="46" depart="1624.00" departLane="a2_0" departPos="5.10" departSpeed="0.00" departDelay="1.77" arrival="1993.00" arrivalLane="b3[1]b_0" arrivalPos="239.77" arrivalSpeed="12.77" duration="369.00" routeLength="3219.51" waitingTime="86.00" waitingCount="4" stopTime="0.00" timeLoss="134.05" rerouteNo="0" devices="vehroute_46 tripinfo_46 fcd_46" vType="DEFAULT_VEHTYPE" speedFactor="1.00" vaporized=""/>
    <tripinfo id="48" depart="1708.00" departLane="a203[0]_0" departPos="5.10" departSpeed="0.00" departDelay="0.39" arrival="1993.00" arrivalLane="b2[1][1][1]b_0" arrivalPos="325.74" arrivalSpeed="11.82" duration="285.00" routeLength="2513.32" waitingTime="39.00" waitingCount="3" stopTime="0.00" timeLoss="76.73" rerouteNo="0" devices="vehroute_48 tripinfo_48 fcd_48" vType="DEFAULT_VEHTYPE" speedFactor="0.88" vaporized=""/>
    <tripinfo id="52" depart="1786.00" departLane="a210_0" departPos="5.10" departSpeed="0.00" departDelay="0.23" arrival="2043.00" arrivalLane="b70_0" arrivalPos="60.87" arrivalSpeed="13.14" duration="257.00" routeLength="2127.23" waitingTime="82.00" waitingCount="2" stopTime="0.00" timeLoss="105.51" rerouteNo="0" devices="vehroute_52 tripinfo_52 fcd_52" vType="DEFAULT_VEHTYPE" speedFactor="1.02" vaporized=""/>
    <tripinfo id="53" depart="1831.00" departLane="a36_0" departPos="5.10" departSpeed="0.00" departDelay="0.11" arrival="2112.00" arrivalLane="b2[1][1][1]b_0" arrivalPos="325.74" arrivalSpeed="14.03" duration="281.00" routeLength="2191.69" waitingTime="91.00" waitingCount="4" stopTime="0.00" timeLoss="133.57" rerouteNo="0" devices="vehroute_53 tripinfo_53 fcd_53" vType="DEFAULT_VEHTYPE" speedFactor="1.10" vaporized=""/>
    <tripinfo id="54" depart="1853.00" departLane="a203[0]_0" departPos="5.10" departSpeed="0.00" departDelay="0.23" arrival="2114.00" arrivalLane="b2[1][1][1]b_0" arrivalPos="325.74" arrivalSpeed="13.49" duration="261.00" routeLength="2513.32" waitingTime="36.00" waitingCount="4" stopTime="0.00" timeLoss="78.60" rerouteNo="0" devices="vehroute_54 tripinfo_54 fcd_54" vType="DEFAULT_VEHTYPE" speedFactor="1.00" vaporized=""/>
    <tripinfo id="55" depart="1875.00" departLane="a203[0]_0" departPos="5.10" departSpeed="0.00" departDelay="0.23" arrival="2116.00" arrivalLane="b2[1][1][1]b_0" arrivalPos="325.74" arrivalSpeed="13.65" duration="241.00" routeLength="2513.32" waitingTime="26.00" waitingCount="2" stopTime="0.00" timeLoss="57.25" rerouteNo="0" devices="vehroute_55 tripinfo_55 fcd_55" vType="DEFAULT_VEHTYPE" speedFactor="1.00" vaporized=""/>
    <tripinfo id="50" depart="1750.00" departLane="a203[0]_0" departPos="5.10" departSpeed="0.00" departDelay="0.34" arrival="2119.00" arrivalLane="b2[1][1][1]b_0" arrivalPos="325.74" arrivalSpeed="11.24" duration="369.00" routeLength="2513.32" waitingTime="125.00" waitingCount="3" stopTime="0.00" timeLoss="155.41" rerouteNo="0" devices="vehroute_50 tripinfo_50 fcd_50" vType="DEFAULT_VEHTYPE" speedFactor="0.85" vaporized=""/>
    <tripinfo id="51" depart="1784.00" departLane="a204a[0]_0" departPos="5.10" departSpeed="0.00" departDelay="0.37" arrival="2122.00" arrivalLane="a190_0" arrivalPos="221.75" arrivalSpeed="15.82" duration="338.00" routeLength="2760.45" waitingTime="124.00" waitingCount="3" stopTime="0.00" timeLoss="164.84" rerouteNo="0" devices="vehroute_51 tripinfo_51 fcd_51" vType="DEFAULT_VEHTYPE" speedFactor="1.17" vaporized=""/>
    <tripinfo id="57" depart="1959.00" departLane="a203[0]_0" departPos="5.10" departSpeed="0.00" departDelay="0.54" arrival="2236.00" arrivalLane="b2[1][1][1]b_0" arrivalPos="325.74" arrivalSpeed="14.82" duration="277.00" routeLength="2513.32" waitingTime="79.00" waitingCount="4" stopTime="0.00" timeLoss="116.95" rerouteNo="0" devices="vehroute_57 tripinfo_57 fcd_57" vType="DEFAULT_VEHTYPE" speedFactor="1.14" vaporized=""/>
    <tripinfo id="60" depart="2009.00" departLane="a203[0]_0" departPos="5.10" departSpeed="0.00" departDelay="0.87" arrival="2237.00" arrivalLane="b2[1][1][1]b_1" arrivalPos="325.74" arrivalSpeed="14.29" duration="228.00" routeLength="2513.32" waitingTime="32.00" waitingCount="2" stopTime="0.00" timeLoss="59.52" rerouteNo="0" devices="vehroute_60 tripinfo_60 fcd_60" vType="DEFAULT_VEHTYPE" speedFactor="1.08" vaporized=""/>
    <tripinfo id="58" depart="1979.00" departLane="a203[0]_0" departPos="5.10" departSpeed="0.00" departDelay="0.38" arrival="2240.00" arrivalLane="b2[1][1][1]b_0" arrivalPos="325.74" arrivalSpeed="13.79" duration="261.00" routeLength="2513.32" waitingTime="45.00" waitingCount="4" stopTime="0.00" timeLoss="82.57" rerouteNo="0" devices="vehroute_58 tripinfo_58 fcd_58" vType="DEFAULT_VEHTYPE" speedFactor="1.02" vaporized=""/>
    <tripinfo id="56" depart="1943.00" departLane="a204a[0]_0" departPos="5.10" departSpeed="0.00" departDelay="0.60" arrival="2296.00" arrivalLane="a190_0" arrivalPos="221.75" arrivalSpeed="11.89" duration="353.00" routeLength="2763.41" waitingTime="87.00" waitingCount="3" stopTime="0.00" timeLoss="127.78" rerouteNo="0" devices="vehroute_56 tripinfo_56 fcd_56" vType="DEFAULT_VEHTYPE" speedFactor="0.90" vaporized=""/>
    <tripinfo id="59" depart="1981.00" departLane="a204a[0]_0" departPos="5.10" departSpeed="0.00" departDelay="0.67" arrival="2431.00" arrivalLane="a190_0" arrivalPos="221.75" arrivalSpeed="13.18" duration="450.00" routeLength="2763.41" waitingTime="202.00" waitingCount="3" stopTime="0.00" timeLoss="240.83" rerouteNo="0" devices="vehroute_59 tripinfo_59 fcd_59" vType="DEFAULT_VEHTYPE" speedFactor="0.97" vaporized=""/>
    <tripinfo id="62" depart="2220.00" departLane="a203[0]_0" departPos="5.10" departSpeed="0.00" departDelay="0.60" arrival="2471.00" arrivalLane="b2[1][1][1]b_0" arrivalPos="325.74" arrivalSpeed="13.34" duration="251.00" routeLength="2513.32" waitingTime="45.00" waitingCount="2" stopTime="0.00" timeLoss="70.50" rerouteNo="0" devices="vehroute_62 tripinfo_62 fcd_62" vType="DEFAULT_VEHTYPE" speedFactor="1.02" vaporized=""/>
    <tripinfo id="61" depart="2155.00" departLane="a2_0" departPos="5.10" departSpeed="0.00" departDelay="0.29" arrival="2564.00" arrivalLane="b3[1]b_0" arrivalPos="239.77" arrivalSpeed="14.92" duration="409.00" routeLength="3222.75" waitingTime="150.00" waitingCount="5" stopTime="0.00" timeLoss="199.36" rerouteNo="0" devices="vehroute_61 tripinfo_61 fcd_61" vType="DEFAULT_VEHTYPE" speedFactor="1.12" vaporized=""/>
    <tripinfo id="63" depart="2290.00" departLane="a203[0]_0" departPos="5.10" departSpeed="0.00" departDelay="0.15" arrival="2580.00" arrivalLane="b2[1][1][1]b_0" arrivalPos="325.74" arrivalSpeed="13.37" duration="290.00" routeLength="2513.32" waitingTime="84.00" waitingCount="1" stopTime="0.00" timeLoss="105.02" rerouteNo="0" devices="vehroute_63 tripinfo_63 fcd_63" vType="DEFAULT_VEHTYPE" speedFactor="0.99" vaporized=""/>
    <tripinfo id="64" depart="2372.00" departLane="a204a[0]_0" departPos="5.10" departSpeed="0.00" departDelay="0.71" arrival="2635.00" arrivalLane="a190_0" arrivalPos="221.75" arrivalSpeed="12.96" duration="263.00" routeLength="2763.41" waitingTime="12.00" waitingCount="2" stopTime="0.00" timeLoss="47.38" rerouteNo="0" devices="vehroute_64 tripinfo_64 fcd_64" vType="DEFAULT_VEHTYPE" speedFactor="0.94" vaporized=""/>
    <tripinfo id="65" depart="2373.00" departLane="a195_0" departPos="5.10" departSpeed="0.00" departDelay="0.47" arrival="2699.00" arrivalLane="b4[1][1][0]_0" arrivalPos="170.25" arrivalSpeed="12.00" duration="326.00" routeLength="2974.50" waitingTime="46.00" waitingCount="2" stopTime="0.00" timeLoss="78.98" rerouteNo="0" devices="vehroute_65 tripinfo_65 fcd_65" vType="DEFAULT_VEHTYPE" speedFactor="0.88" vaporized=""/>
    <tripinfo id="67" depart="2418.00" departLane="a195_0" departPos="5.10" departSpeed="0.00" departDelay="0.76" arrival="2702.00" arrivalLane="b4[1][1][0]_0" arrivalPos="170.25" arrivalSpeed="12.15" duration="284.00" routeLength="2974.50" waitingTime="14.00" waitingCount="1" stopTime="0.00" timeLoss="46.14" rerouteNo="0" devices="vehroute_67 tripinfo_67 fcd_67" vType="DEFAULT_VEHTYPE" speedFactor="0.91" vaporized=""/>