<?xml version="1.0" encoding="UTF-8"?>

<!-- generated on 2025-03-21 17:36:07 by Eclipse SUMO sumo Version 1.21.0
<sumoConfiguration xmlns:xsi="http://www.w3.org/2001/XMLSchema-instance" xsi:noNamespaceSchemaLocation="http://sumo.dlr.de/xsd/sumoConfiguration.xsd">

    <input>
        <net-file value="${STATICPATH}/joined_lanes.net.xml"/>
        <route-files value="${SIMULATIONPATH}/generatedRoutes.rou.xml"/>
        <additional-files value="${STATICPATH}/detectors.add.xml,${STATICPATH}/joined_vtypes.add.xml,${STATICPATH}/joined_tls.add.xml"/>
    </input>

    <output>
        <fcd-output value="${SIMULATIONPATH}/fcd.xml"/>
        <queue-output value="${SIMULATIONPATH}/queue.xml"/>
        <summary-output value="${SIMULATIONPATH}/summary.xml"/>
        <tripinfo-output value="${SIMULATIONPATH}/tripinfos.xml"/>
        <vehroute-output value="${SIMULATIONPATH}/vehroute.xml"/>
        <save-state.prefix value="configs\state"/>
    </output>

    <processing>
        <ignore-junction-blocker value="1"/>
        <ignore-route-errors value="true"/>
        <time-to-teleport value="-1"/>
    </processing>

    <report>
        <log value="C:/Users/fabio/Desktop/sumo_log.txt"/>
        <no-step-log value="true"/>
    </report>

    <emissions>
        <phemlight-path value="configs\./PHEMlight/"/>
    </emissions>

    <traci_server>
        <remote-port value="60105"/>
    </traci_server>

</sumoConfiguration>
-->

<routes xmlns:xsi="http://www.w3.org/2001/XMLSchema-instance" xsi:noNamespaceSchemaLocation="http://sumo.dlr.de/xsd/routes_file.xsd">
    <vehicle id="0" depart="38.00" arrival="220.00">
        <route edges="a78[0] a56a a56b a77bc a77cd a53cd a53[0] a53[1][0] a79 a68 a11 b38[0] b38[0]a b38[1][0] b96 b49[1] b55 b53 b53a"/>
    </vehicle>

    <vehicle id="3" depart="137.00" arrival="307.00">
        <route edges="a78[0] a56a a56b a77bc a77cd a53cd a53[0] a53[1][0] a79 a68 a11 b2[0] b2[1][0] b2[1][1][0] b2[1][1][1] b2[1][1][1]b"/>
    </vehicle>

    <vehicle id="2" depart="129.00" arrival="308.00">
        <route edges="a78[0] a56a a56b a77bc a77cd a53cd a53[0] a53[1][0] a79 a68 a11 b2[0] b2[1][0] b2[1][1][0] b2[1][1][1] b2[1][1][1]b"/>
    </vehicle>

    <vehicle id="1" depart="46.00" arrival="313.00">
        <route edges="a78[0] a56a a56b a77bc a77cd a53cd a53[0] a53[1][0] a79 a68 a11 b2[0] b2[1][0] b2[1][1][0] b2[1][1][1] b2[1][1][1]b"/>
    </vehicle>

    <vehicle id="4" depart="158.00" arrival="457.00">
        <route edges="a2 a202 a34 a134 a134b a133 a31 a201 a201c a204a[0] a124 b12 b56[0] b56[1][0] b56[1][1] b5[1][0]+66 b5[1][1][1] b8 b3[1] b3[1]b"/>
    </vehicle>

    <vehicle id="6" depart="194.00" arrival="469.00">
        <route edges="a195 a159 a42 a39 a35 a38 a15 a24 a22 a59 a53cd a53[0] a53[1][0] a79 a68 a11 b38[0] b38[0]a b37 b26 b26.-170 b15 b13[1] b4[0] b4[1][1][0]"/>
    </vehicle>

    <vehicle id="5" depart="173.00" arrival="496.00">
        <route edges="a210 a43[0] a43[1] a201 a201c a204a[0] a124 b12 b56[0] b56[1][0] b56[1][1] b5[1][0]+66 b5[1][1][1] b16[0] b29[0] b29[1] b4[1][1][0] b9"/>
    </vehicle>

    <vehicle id="12" depart="368.00" arrival="566.00">
        <route edges="a78[0] a56a a56b a77bc a77cd a53cd a53[0] a53[1][0] a79 a68 a11 b38[0] b38[0]a b38[1][0] b96 b49[1] b55 b53 b53a"/>
    </vehicle>

    <vehicle id="7" depart="248.00" arrival="596.00">
        <route edges="a2 a202 a34 a134 a134b a133 a31 a201 a201c a204a[0] a124 b12 b56[0] b56[1][0] b56[1][1] b5[1][0]+66 b5[1][1][1] b8 b3[1] b3[1]b"/>
    </vehicle>

    <vehicle id="10" depart="298.00" arrival="610.00">
        <route edges="a203[0] b12 b50[0] b50[1] b50[1]a a181 a18 a17 a71 b2[0] b2[1][0] b2[1][1][0] b2[1][1][1] b2[1][1][1]b"/>
    </vehicle>

    <vehicle id="8" depart="250.00" arrival="616.00">
        <route edges="a203[0] b12 b50[0] b50[1] b50[1]a a181 a18 a17 a71 b2[0] b2[1][0] b2[1][1][0] b2[1][1][1] b2[1][1][1]b"/>
    </vehicle>

    <vehicle id="17" depart="411.00" arrival="622.00">
        <route edges="a78[0] a56a a56b a77bc a77cd a53cd a53[0] a53[1][0] a79 a68 a11 b38[0] b38[0]a b38[1][0] b96 b49[1] b55 b53 b53a"/>
    </vehicle>

    <vehicle id="16" depart="399.00" arrival="623.00">
        <route edges="a210 a43[0] a43[1] a201 a201c a204a[0] a124 b12 b56[0] b56[1][0] b56[1][1] b70"/>
    </vehicle>

    <vehicle id="9" depart="276.00" arrival="626.00">
        <route edges="a203[0] b12 b50[0] b50[1] b50[1]a a181 a18 a17 a71 b2[0] b2[1][0] b2[1][1][0] b2[1][1][1] b2[1][1][1]b"/>
    </vehicle>

    <vehicle id="14" depart="381.00" arrival="654.00">
        <route edges="a34 a134 a134b a133 a31 a201 a201c a204a[0] a124 b12 b50[0] b50[1] b49[1] b55 b35[1][1][0] b20000+35[1][1][1][0] b35[1][1][1][1] a203[1] a203[1]b"/>
    </vehicle>

    <vehicle id="11" depart="343.00" arrival="687.00">
        <route edges="a204a[0] a124 b12 b50[0] b50[1] b50[1]a a181 a18 a17 a71 a67 a80 a127 a77[1][0] a77ab a77bc a77cd a53cd a53[0] a78[1][1] a189[0] a189[1][0]+20000 a189[1][1] a188 a87[0] a20001+87[1][0] a87[1][1] am90 am91 a88 a187 a190"/>
    </vehicle>

    <vehicle id="13" depart="380.00" arrival="713.00">
        <route edges="a2 a202 a34 a134 a134b a133 a31 a201 a201c a204a[0] a124 b12 b56[0] b56[1][0] b56[1][1] b5[1][0]+66 b5[1][1][1] b8 b3[1] b3[1]b"/>
    </vehicle>

    <vehicle id="18" depart="451.00" arrival="732.00">
        <route edges="a195 a159 a42 a39 a35 a38 a15 a24 a22 a59 a53cd a53[0] a53[1][0] a79 a68 a11 b38[0] b38[0]a b37 b26 b26.-170 b15 b13[1] b4[0] b4[1][1][0]"/>
    </vehicle>

    <vehicle id="15" depart="389.00" arrival="752.00">
        <route edges="a203[0] b12 b50[0] b50[1] b50[1]a a181 a18 a17 a71 b2[0] b2[1][0] b2[1][1][0] b2[1][1][1] b2[1][1][1]b"/>
    </vehicle>

    <vehicle id="19" depart="480.00" arrival="769.00">
        <route edges="a204a[0] a124 b12 b50[0] b50[1] b50[1]a a181 a18 a17 a71 a67 a80 a127 a77[1][0] a77ab a77bc a77cd a53cd a53[0] a78[1][1] a189[0] a189[1][0]+20000 a189[1][1] a188 a87[0] a20001+87[1][0] a87[1][1] am90 am91 a88 a187 a190"/>
    </vehicle>

    <vehicle id="21" depart="590.00" arrival="786.00">
        <route edges="a78[0] a56a a56b a77bc a77cd a53cd a53[0] a53[1][0] a79 a68 a11 b2[0] b2[1][0] b2[1][1][0] b2[1][1][1] b2[1][1][1]b"/>
    </vehicle>

    <vehicle id="22" depart="651.00" arrival="876.00">
        <route edges="a203[0] b12 b50[0] b50[1] b50[1]a a181 a18 a17 a71 b2[0] b2[1][0] b2[1][1][0] b2[1][1][1] b2[1][1][1]b"/>
    </vehicle>

    <vehicle id="20" depart="564.00" arrival="903.00">
        <route edges="a204a[0] a124 b12 b50[0] b50[1] b50[1]a a181 a18 a17 a71 a67 a80 a127 a77[1][0] a77ab a77bc a77cd a53cd a53[0] a78[1][1] a189[0] a189[1][0]+20000 a189[1][1] a188 a87[0] a20001+87[1][0] a87[1][1] am90 am91 a88 a187 a190"/>
    </vehicle>

    <vehicle id="23" depart="796.00" arrival="1112.00">
        <route edges="a203[0] b12 b50[0] b50[1] b50[1]a a181 a18 a17 a71 b2[0] b2[1][0] b2[1][1][0] b2[1][1][1] b2[1][1][1]b"/>
    </vehicle>

    <vehicle id="25" depart="821.00" arrival="1113.00">
        <route edges="a203[0] b12 b50[0] b50[1] b50[1]a a181 a18 a17 a71 b2[0] b2[1][0] b2[1][1][0] b2[1][1][1] b2[1][1][1]b"/>
    </vehicle>

    <vehicle id="30" depart="970.00" arrival="1152.00">
        <route edges="a78[0] a56a a56b a77bc a77cd a53cd a53[0] a53[1][0] a79 a68 a11 b38[0] b38[0]a b38[1][0] b96 b49[1] b55 b53 b53a"/>
    </vehicle>

    <vehicle id="27" depart="920.00" arrival="1172.00">
        <route edges="a78[0] a56a a56b a77bc a77cd a53cd a53[0] a53[1][0] a79 a68 a11 b2[0] b2[1][0] b2[1][1][0] b2[1][1][1] b2[1][1][1]b"/>
    </vehicle>

    <vehicle id="24" depart="818.00" arrival="1217.00">
        <route edges="a204a[0] a124 b12 b50[0] b50[1] b50[1]a a181 a18 a17 a71 a67 a80 a127 a77[1][0] a77ab a77bc a77cd a53cd a53[0] a78[1][1] a189[0] a189[1][0]+20000 a189[1][1] a188 a87[0] a20001+87[1][0] a87[1][1] am90 am91 a88 a187 a190"/>
    </vehicle>

    <vehicle id="32" depart="1006.00" arrival="1227.00">
        <route edges="a203[0] b12 b50[0] b50[1] b50[1]a a181 a18 a17 a71 b2[0] b2[1][0] b2[1][1][0] b2[1][1][1] b2[1][1][1]b"/>
    </vehicle>

    <vehicle id="29" depart="939.00" arrival="1228.00">
        <route edges="a210 a43[0] a43[1] a201 a201c a204a[0] a124 b12 b56[0] b56[1][0] b56[1][1] b5[1][0]+66 b5[1][1][1] b16[0] b29[0] b29[1] b4[1][1][0] b9"/>
    </vehicle>

    <vehicle id="26" depart="912.00" arrival="1274.00">
        <route edges="a210 a43[0] a43[1] a201 a201c a204a[0] a124 b12 b56[0] b56[1][0] b56[1][1] b5[1][0]+66 b5[1][1][1] b16[0] b29[0] b29[1] b4[1][1][0] b9"/>
    </vehicle>

    <vehicle id="28" depart="931.00" arrival="1307.00">
        <route edges="a2 a202 a34 a134 a134b a133 a31 a201 a201c a204a[0] a124 b12 b56[0] b56[1][0] b56[1][1] b5[1][0]+66 b5[1][1][1] b8 b3[1] b3[1]b"/>
    </vehicle>

    <vehicle id="34" depart="1153.00" arrival="1314.00">
        <route edges="a78[0] a56a a56b a77bc a77cd a53cd a53[0] a53[1][0] a79 a68 a11 b38[0] b38[0]a b38[1][0] b96 b49[1] b55 b53 b53a"/>
    </vehicle>

    <vehicle id="31" depart="986.00" arrival="1321.00">
        <route edges="a195 a159 a42 a39 a35 a38 a15 a24 a22 a59 a53cd a53[0] a53[1][0] a79 a68 a11 b38[0] b38[0]a b37 b26 b26.-170 b15 b13[1] b4[0] b4[1][1][0]"/>
    </vehicle>

    <vehicle id="33" depart="1141.00" arrival="1359.00">
        <route edges="a36 a40 a153 a87[0] a20001+87[1][0] a87[1][1] am90 am91 a88 a187 a191 a17 a71 b2[0] b2[1][0] b2[1][1][0] b2[1][1][1] b2[1][1][1]b"/>
    </vehicle>

    <vehicle id="35" depart="1160.00" arrival="1518.00">
        <route edges="a204a[0] a124 b12 b50[0] b50[1] b50[1]a a181 a18 a17 a71 a67 a80 a127 a77[1][0] a77ab a77bc a77cd a53cd a53[0] a78[1][1] a189[0] a189[1][0]+20000 a189[1][1] a188 a87[0] a20001+87[1][0] a87[1][1] am90 am91 a88 a187 a190"/>
    </vehicle>

    <vehicle id="40" depart="1400.00" arrival="1598.00">
        <route edges="a210 a43[0] a43[1] a201 a201c a204a[0] a124 b12 b56[0] b56[1][0] b56[1][1] b70"/>
    </vehicle>

    <vehicle id="38" depart="1391.00" arrival="1612.00">
        <route edges="a210 a43[0] a43[1] a115 a110 a185 a92 a90 am91 a88 a187 a191 a17 a71 b2[0] b2[1][0] b2[1][1][0] b2[1][1][1] b2[1][1][1]b"/>
    </vehicle>

    <vehicle id="37" depart="1354.00" arrival="1629.00">
        <route edges="a204a[0] a124 b12 b50[0] b50[1] b50[1]a a181 a18 a17 a71 a67 a80 a127 a77[1][0] a77ab a77bc a77cd a53cd a53[0] a78[1][1] a189[0] a189[1][0]+20000 a189[1][1] a188 a87[0] a20001+87[1][0] a87[1][1] am90 am91 a88 a187 a190"/>
    </vehicle>

    <vehicle id="36" depart="1278.00" arrival="1630.00">
        <route edges="a2 a202 a34 a134 a134b a133 a31 a201 a201c a204a[0] a124 b12 b56[0] b56[1][0] b56[1][1] b5[1][0]+66 b5[1][1][1] b8 b3[1] b3[1]b"/>
    </vehicle>

    <vehicle id="41" depart="1413.00" arrival="1726.00">
        <route edges="a34 a134 a134b a133 a31 a201 a201c a204a[0] a124 b12 b50[0] b50[1] b49[1] b55 b35[1][1][0] b20000+35[1][1][1][0] b35[1][1][1][1] a203[1] a203[1]b"/>
    </vehicle>

    <vehicle id="42" depart="1484.00" arrival="1737.00">
        <route edges="a203[0] b12 b50[0] b50[1] b50[1]a a181 a18 a17 a71 b2[0] b2[1][0] b2[1][1][0] b2[1][1][1] b2[1][1][1]b"/>
    </vehicle>

    <vehicle id="39" depart="1396.00" arrival="1743.00">
        <route edges="a203[0] b12 b50[0] b50[1] b50[1]a a181 a18 a17 a71 b2[0] b2[1][0] b2[1][1][0] b2[1][1][1] b2[1][1][1]b"/>
    </vehicle>

    <vehicle id="44" depart="1596.00" arrival="1862.00">
        <route edges="a203[0] b12 b50[0] b50[1] b50[1]a a181 a18 a17 a71 b2[0] b2[1][0] b2[1][1][0] b2[1][1][1] b2[1][1][1]b"/>
    </vehicle>

    <vehicle id="43" depart="1528.00" arrival="1935.00">
        <route edges="a204a[0] a124 b12 b50[0] b50[1] b50[1]a a181 a18 a17 a71 a67 a80 a127 a77[1][0] a77ab a77bc a77cd a53cd a53[0] a78[1][1] a189[0] a189[1][0]+20000 a189[1][1] a188 a87[0] a20001+87[1][0] a87[1][1] am90 am91 a88 a187 a190"/>
    </vehicle>

    <vehicle id="49" depart="1722.00" arrival="1939.00">
        <route edges="a78[0] a56a a56b a77bc a77cd a53cd a53[0] a53[1][0] a79 a68 a11 b38[0] b38[0]a b38[1][0] b96 b49[1] b55 b53 b53a"/>
    </vehicle>

    <vehicle id="47" depart="1664.00" arrival="1940.00">
        <route edges="a204a[0] a124 b12 b50[0] b50[1] b50[1]a a181 a18 a17 a71 a67 a80 a127 a77[1][0] a77ab a77bc a77cd a53cd a53[0] a78[1][1] a189[0] a189[1][0]+20000 a189[1][1] a188 a87[0] a20001+87[1][0] a87[1][1] am90 am91 a88 a187 a190"/>
    </vehicle>

    <vehicle id="45" depart="1621.00" arrival="1991.00">
        <route edges="a2 a202 a34 a134 a134b a133 a31 a201 a201c a204a[0] a124 b12 b56[0] b56[1][0] b56[1][1] b5[1][0]+66 b5[1][1][1] b8 b3[1] b3[1]b"/>
    </vehicle>

    <vehicle id="46" depart="1624.00" arrival="1993.00">
        <route edges="a2 a202 a34 a134 a134b a133 a31 a201 a201c a204a[0] a124 b12 b56[0] b56[1][0] b56[1][1] b5[1][0]+66 b5[1][1][1] b8 b3[1] b3[1]b"/>
    </vehicle>

    <vehicle id="48" depart="1708.00" arrival="1993.00">
        <route edges="a203[0] b12 b50[0] b50[1] b50[1]a a181 a18 a17 a71 b2[0] b2[1][0] b2[1][1][0] b2[1][1][1] b2[1][1][1]b"/>
    </vehicle>

    <vehicle id="52" depart="1786.00" arrival="2043.00">
        <route edges="a210 a43[0] a43[1] a201 a201c a204a[0] a124 b12 b56[0] b56[1][0] b56[1][1] b70"/>
    </vehicle>

    <vehicle id="53" depart="1831.00" arrival="2112.00">
        <route edges="a36 a40 a153 a87[0] a20001+87[1][0] a87[1][1] am90 am91 a88 a187 a191 a17 a71 b2[0] b2[1][0] b2[1][1][0] b2[1][1][1] b2[1][1][1]b"/>
    </vehicle>

    <vehicle id="54" depart="1853.00" arrival="2114.00">
        <route edges="a203[0] b12 b50[0] b50[1] b50[1]a a181 a18 a17 a71 b2[0] b2[1][0] b2[1][1][0] b2[1][1][1] b2[1][1][1]b"/>
    </vehicle>

    <vehicle id="55" depart="1875.00" arrival="2116.00">
        <route edges="a203[0] b12 b50[0] b50[1] b50[1]a a181 a18 a17 a71 b2[0] b2[1][0] b2[1][1][0] b2[1][1][1] b2[1][1][1]b"/>
    </vehicle>

    <vehicle id="50" depart="1750.00" arrival="2119.00">
        <route edges="a203[0] b12 b50[0] b50[1] b50[1]a a181 a18 a17 a71 b2[0] b2[1][0] b2[1][1][0] b2[1][1][1] b2[1][1][1]b"/>
    </vehicle>

    <vehicle id="51" depart="1784.00" arrival="2122.00">
        <route edges="a204a[0] a124 b12 b50[0] b50[1] b50[1]a a181 a18 a17 a71 a67 a80 a127 a77[1][0] a77ab a77bc a77cd a53cd a53[0] a78[1][1] a189[0] a189[1][0]+20000 a189[1][1] a188 a87[0] a20001+87[1][0] a87[1][1] am90 am91 a88 a187 a190"/>
    </vehicle>

    <vehicle id="57" depart="1959.00" arrival="2236.00">
        <route edges="a203[0] b12 b50[0] b50[1] b50[1]a a181 a18 a17 a71 b2[0] b2[1][0] b2[1][1][0] b2[1][1][1] b2[1][1][1]b"/>
    </vehicle>

    <vehicle id="60" depart="2009.00" arrival="2237.00">
        <route edges="a203[0] b12 b50[0] b50[1] b50[1]a a181 a18 a17 a71 b2[0] b2[1][0] b2[1][1][0] b2[1][1][1] b2[1][1][1]b"/>
    </vehicle>

    <vehicle id="58" depart="1979.00" arrival="2240.00">
        <route edges="a203[0] b12 b50[0] b50[1] b50[1]a a181 a18 a17 a71 b2[0] b2[1][0] b2[1][1][0] b2[1][1][1] b2[1][1][1]b"/>
    </vehicle>

    <vehicle id="56" depart="1943.00" arrival="2296.00">
        <route edges="a204a[0] a124 b12 b50[0] b50[1] b50[1]a a181 a18 a17 a71 a67 a80 a127 a77[1][0] a77ab a77bc a77cd a53cd a53[0] a78[1][1] a189[0] a189[1][0]+20000 a189[1][1] a188 a87[0] a20001+87[1][0] a87[1][1] am90 am91 a88 a187 a190"/>
    </vehicle>

    <vehicle id="59" depart="1981.00" arrival="2431.00">
        <route edges="a204a[0] a124 b12 b50[0] b50[1] b50[1]a a181 a18 a17 a71 a67 a80 a127 a77[1][0] a77ab a77bc a77cd a53cd a53[0] a78[1][1] a189[0] a189[1][0]+20000 a189[1][1] a188 a87[0] a20001+87[1][0] a87[1][1] am90 am91 a88 a187 a190"/>
    </vehicle>

    <vehicle id="62" depart="2220.00" arrival="2471.00">
        <route edges="a203[0] b12 b50[0] b50[1] b50[1]a a181 a18 a17 a71 b2[0] b2[1][0] b2[1][1][0] b2[1][1][1] b2[1][1][1]b"/>
    </vehicle>

    <vehicle id="61" depart="2155.00" arrival="2564.00">
        <route edges="a2 a202 a34 a134 a134b a133 a31 a201 a201c a204a[0] a124 b12 b56[0] b56[1][0] b56[1][1] b5[1][0]+66 b5[1][1][1] b8 b3[1] b3[1]b"/>
    </vehicle>

    <vehicle id="63" depart="2290.00" arrival="2580.00">
        <route edges="a203[0] b12 b50[0] b50[1] b50[1]a a181 a18 a17 a71 b2[0] b2[1][0] b2[1][1][0] b2[1][1][1] b2[1][1][1]b"/>
    </vehicle>

    <vehicle id="64" depart="2372.00" arrival="2635.00">
        <route edges="a204a[0] a124 b12 b50[0] b50[1] b50[1]a a181 a18 a17 a71 a67 a80 a127 a77[1][0] a77ab a77bc a77cd a53cd a53[0] a78[1][1] a189[0] a189[1][0]+20000 a189[1][1] a188 a87[0] a20001+87[1][0] a87[1][1] am90 am91 a88 a187 a190"/>
    </vehicle>

    <vehicle id="65" depart="2373.00" arrival="2699.00">
        <route edges="a195 a159 a42 a39 a35 a38 a15 a24 a22 a59 a53cd a53[0] a53[1][0] a79 a68 a11 b38[0] b38[0]a b37 b26 b26.-170 b15 b13[1] b4[0] b4[1][1][0]"/>
    </vehicle>

    <vehicle id="67" depart="2418.00" arrival="2702.00">
        <route edges="a195 a159 a42 a39 a35 a38 a15 a24 a22 a59 a53cd a53[0] a53[1][0] a79 a68 a11 b38[0] b38[0]a b37 b26 b26.-170 b15 b13[1] b4[0] b4[1][1][0]"/>
    </vehicle>

    <vehicle id="69" depart="2468.00" arrival="2714.00">
        <route edges="a203[0] b12 b50[0] b50[1] b50[1]a a181 a18 a17 a71 b2[0] b2[1][0] b2[1][1][0] b2[1][1][1] b2[1][1][1]b"/>
    </vehicle>

    <vehicle id="66" depart="2403.00" arrival="2758.00">
        <route edges="a2 a202 a34 a134 a134b a133 a31 a201 a201c a204a[0] a124 b12 b56[0] b56[1][0] b56[1][1] b5[1][0]+66 b5[1][1][1] b8 b3[1] b3[1]b"/>
    </vehicle>

    <vehicle id="68" depart="2434.00" arrival="2784.00">
        <route edges="a204a[0] a124 b12 b50[0] b50[1] b50[1]a a181 a18 a17 a71 a67 a80 a127 a77[1][0] a77ab a77bc a77cd a53cd a53[0] a78[1][1] a189[0] a189[1][0]+20000 a189[1][1] a188 a87[0] a20001+87[1][0] a87[1][1] am90 am91 a88 a187 a190"/>
    </vehicle>

    <vehicle id="76" depart="2822.00" arrival="2998.00">
        <route edges="a78[0] a56a a56b a77bc a77cd a53cd a53[0] a53[1][0] a79 a68 a11 b2[0] b2[1][0] b2[1][1][0] b2[1][1][1] b2[1][1][1]b"/>
    </vehicle>

    <vehicle id="72" depart="2694.00" arrival="3004.00">
        <route edges="a204a[0] a124 b12 b50[0] b50[1] b50[1]a a181 a18 a17 a71 a67 a80 a127 a77[1][0] a77ab a77bc a77cd a53cd a53[0] a78[1][1] a189[0] a189[1][0]+20000 a189[1][1] a188 a87[0] a20001+87[1][0] a87[1][1] am90 am91 a88 a187 a190"/>
    </vehicle>

    <vehicle id="70" depart="2621.00" arrival="3016.00">
        <route edges="a2 a202 a34 a134 a134b a133 a31 a201 a201c a204a[0] a124 b12 b56[0] b56[1][0] b56[1][1] b5[1][0]+66 b5[1][1][1] b8 b3[1] b3[1]b"/>
    </vehicle>

    <vehicle id="71" depart="2687.00" arrival="3026.00">
        <route edges="a2 a202 a34 a134 a134b a133 a31 a201 a201c a204a[0] a124 b12 b56[0] b56[1][0] b56[1][1] b5[1][0]+66 b5[1][1][1] b8 b3[1] b3[1]b"/>
    </vehicle>

    <vehicle id="74" depart="2813.00" arrival="3075.00">
        <route edges="a203[0] b12 b50[0] b50[1] b50[1]a a181 a18 a17 a71 b2[0] b2[1][0] b2[1][1][0] b2[1][1][1] b2[1][1][1]b"/>
    </vehicle>

    <vehicle id="73" depart="2712.00" arrival="3076.00">
        <route edges="a34 a134 a134b a133 a31 a201 a201c a204a[0] a124 b12 b50[0] b50[1] b49[1] b55 b35[1][1][0] b20000+35[1][1][1][0] b35[1][1][1][1] a203[1] a203[1]b"/>
    </vehicle>

    <vehicle id="80" depart="2990.00" arrival="3153.00">
        <route edges="a78[0] a56a a56b a77bc a77cd a53cd a53[0] a53[1][0] a79 a68 a11 b38[0] b38[0]a b38[1][0] b96 b49[1] b55 b53 b53a"/>
    </vehicle>

    <vehicle id="75" depart="2817.00" arrival="3173.00">
        <route edges="a2 a202 a34 a134 a134b a133 a31 a201 a201c a204a[0] a124 b12 b56[0] b56[1][0] b56[1][1] b5[1][0]+66 b5[1][1][1] b8 b3[1] b3[1]b"/>
    </vehicle>

    <vehicle id="77" depart="2888.00" arrival="3174.00">
        <route edges="a2 a202 a34 a134 a134b a133 a31 a201 a201c a204a[0] a124 b12 b56[0] b56[1][0] b56[1][1] b5[1][0]+66 b5[1][1][1] b8 b3[1] b3[1]b"/>
    </vehicle>

    <vehicle id="78" depart="2912.00" arrival="3194.00">
        <route edges="a203[0] b12 b50[0] b50[1] b50[1]a a181 a18 a17 a71 b2[0] b2[1][0] b2[1][1][0] b2[1][1][1] b2[1][1][1]b"/>
    </vehicle>

    <vehicle id="79" depart="2971.00" arrival="3295.00">
        <route edges="a195 a159 a42 a39 a35 a38 a15 a24 a22 a59 a53cd a53[0] a53[1][0] a79 a68 a11 b38[0] b38[0]a b37 b26 b26.-170 b15 b13[1] b4[0] b4[1][1][0]"/>
    </vehicle>

    <vehicle id="82" depart="3166.00" arrival="3368.00">
        <route edges="a78[0] a56a a56b a77bc a77cd a53cd a53[0] a53[1][0] a79 a68 a11 b2[0] b2[1][0] b2[1][1][0] b2[1][1][1] b2[1][1][1]b"/>
    </vehicle>

    <vehicle id="83" depart="3177.00" arrival="3431.00">
        <route edges="a195 a159 a42 a39 a35 a38 a15 a24 a22 a59 a53cd a53[0] a53[1][0] a79 a68 a11 b38[0] b38[0]a b37 b26 b26.-170 b15 b13[1] b4[0] b4[1][1][0]"/>
    </vehicle>

    <vehicle id="85" depart="3225.00" arrival="3443.00">
        <route edges="a78[0] a56a a56b a77bc a77cd a53cd a53[0] a53[1][0] a79 a68 a11 b38[0] b38[0]a b38[1][0] b96 b49[1] b55 b53 b53a"/>
    </vehicle>

    <vehicle id="81" depart="3095.00" arrival="3446.00">
        <route edges="a2 a202 a34 a134 a134b a133 a31 a201 a201c a204a[0] a124 b12 b56[0] b56[1][0] b56[1][1] b5[1][0]+66 b5[1][1][1] b8 b3[1] b3[1]b"/>
    </vehicle>

    <vehicle id="84" depart="3202.00" arrival="3446.00">
        <route edges="a203[0] b12 b50[0] b50[1] b50[1]a a181 a18 a17 a71 b2[0] b2[1][0] b2[1][1][0] b2[1][1][1] b2[1][1][1]b"/>
    </vehicle>

    <vehicle id="88" depart="3342.00" arrival="3554.00">
        <route edges="a78[0] a56a a56b a77bc a77cd a53cd a53[0] a53[1][0] a79 a68 a11 b38[0] b38[0]a b38[1][0] b96 b49[1] b55 b53 b53a"/>
    </vehicle>

    <vehicle id="86" depart="3237.00" arrival="3557.00">
        <route edges="a195 a159 a42 a39 a35 a38 a15 a24 a22 a59 a53cd a53[0] a53[1][0] a79 a68 a11 b38[0] b38[0]a b37 b26 b26.-170 b15 b13[1] b4[0] b4[1][1][0]"/>
    </vehicle>

    <vehicle id="87" depart="3314.00" arrival="3607.00">
        <route edges="a204a[0] a124 b12 b50[0] b50[1] b50[1]a a181 a18 a17 a71 a67 a80 a127 a77[1][0] a77ab a77bc a77cd a53cd a53[0] a78[1][1] a189[0] a189[1][0]+20000 a189[1][1] a188 a87[0] a20001+87[1][0] a87[1][1] am90 am91 a88 a187 a190"/>
    </vehicle>

    <vehicle id="91" depart="3395.00" arrival="3666.00">
        <route edges="a210 a43[0] a43[1] a201 a201c a204a[0] a124 b12 b56[0] b56[1][0] b56[1][1] b70"/>
    </vehicle>

    <vehicle id="94" depart="3495.00" arrival="3741.00">
        <route edges="a78[0] a56a a56b a77bc a77cd a53cd a53[0] a53[1][0] a79 a68 a11 b38[0] b38[0]a b38[1][0] b96 b49[1] b55 b53 b53a"/>
    </vehicle>

    <vehicle id="89" depart="3350.00" arrival="3759.00">
        <route edges="a2 a202 a34 a134 a134b a133 a31 a201 a201c a204a[0] a124 b12 b56[0] b56[1][0] b56[1][1] b5[1][0]+66 b5[1][1][1] b8 b3[1] b3[1]b"/>
    </vehicle>

    <vehicle id="90" depart="3393.00" arrival="3759.00">
        <route edges="a2 a202 a34 a134 a134b a133 a31 a201 a201c a204a[0] a124 b12 b56[0] b56[1][0] b56[1][1] b5[1][0]+66 b5[1][1][1] b8 b3[1] b3[1]b"/>
    </vehicle>

    <vehicle id="98" depart="3570.00" arrival="3804.00">
        <route edges="a203[0] b12 b50[0] b50[1] b50[1]a a181 a18 a17 a71 b2[0] b2[1][0] b2[1][1][0] b2[1][1][1] b2[1][1][1]b"/>
    </vehicle>

    <vehicle id="95" depart="3514.00" arrival="3806.00">
        <route edges="a203[0] b12 b50[0] b50[1] b50[1]a a181 a18 a17 a71 b2[0] b2[1][0] b2[1][1][0] b2[1][1][1] b2[1][1][1]b"/>
    </vehicle>

    <vehicle id="92" depart="3443.00" arrival="3824.00">
        <route edges="a203[0] b12 b50[0] b50[1] b50[1]a a181 a18 a17 a71 b2[0] b2[1][0] b2[1][1][0] b2[1][1][1] b2[1][1][1]b"/>
    </vehicle>

    <vehicle id="96" depart="3523.00" arrival="3899.00">
        <route edges="a2 a202 a34 a134 a134b a133 a31 a201 a201c a204a[0] a124 b12 b56[0] b56[1][0] b56[1][1] b5[1][0]+66 b5[1][1][1] b8 b3[1] b3[1]b"/>
    </vehicle>

    <vehicle id="93" depart="3456.00" arrival="3903.00">
        <route edges="a2 a202 a34 a134 a134b a133 a31 a201 a201c a204a[0] a124 b12 b56[0] b56[1][0] b56[1][1] b5[1][0]+66 b5[1][1][1] b8 b3[1] b3[1]b"/>
    </vehicle>

    <vehicle id="97" depart="3558.00" arrival="3917.00">
        <route edges="a204a[0] a124 b12 b50[0] b50[1] b50[1]a a181 a18 a17 a71 a67 a80 a127 a77[1][0] a77ab a77bc a77cd a53cd a53[0] a78[1][1] a189[0] a189[1][0]+20000 a189[1][1] a188 a87[0] a20001+87[1][0] a87[1][1] am90 am91 a88 a187 a190"/>
    </vehicle>

    <vehicle id="99" depart="3573.00" arrival="3919.00">
        <route edges="a204a[0] a124 b12 b50[0] b50[1] b50[1]a a181 a18 a17 a71 a67 a80 a127 a77[1][0] a77ab a77bc a77cd a53cd a53[0] a78[1][1] a189[0] a189[1][0]+20000 a189[1][1] a188 a87[0] a20001+87[1][0] a87[1][1] am90 am91 a88 a187 a190"/>
    </vehicle>

</routes>
