<?xml version="1.0" encoding="UTF-8"?>

<!-- generated on 2025-03-21 17:16:50 by Eclipse SUMO sumo Version 1.21.0
<sumoConfiguration xmlns:xsi="http://www.w3.org/2001/XMLSchema-instance" xsi:noNamespaceSchemaLocation="http://sumo.dlr.de/xsd/sumoConfiguration.xsd">

    <input>
        <net-file value="${STATICPATH}/joined_lanes.net.xml"/>
        <route-files value="${SIMULATIONPATH}/generatedRoutes.rou.xml"/>
        <additional-files value="${STATICPATH}/detectors.add.xml,${STATICPATH}/joined_vtypes.add.xml,${STATICPATH}/joined_tls.add.xml"/>
    </input>

    <output>
        <fcd-output value="${SIMULATIONPATH}/fcd.xml"/>
        <queue-output value="${SIMULATIONPATH}/queue.xml"/>
        <summary-output value="${SIMULATIONPATH}/summary.xml"/>
        <tripinfo-output value="${SIMULATIONPATH}/tripinfos.xml"/>
        <vehroute-output value="${SIMULATIONPATH}/vehroute.xml"/>
        <save-state.prefix value="configs\state"/>
    </output>

    <processing>
        <ignore-junction-blocker value="1"/>
        <ignore-route-errors value="true"/>
        <time-to-teleport value="-1"/>
    </processing>

    <report>
        <log value="C:/Users/fabio/Desktop/sumo_log.txt"/>
        <no-step-log value="true"/>
    </report>

    <emissions>
        <phemlight-path value="configs\./PHEMlight/"/>
    </emissions>

    <traci_server>
        <remote-port value="60014"/>
    </traci_server>

</sumoConfiguration>
-->

<fcd-export xmlns:xsi="http://www.w3.org/2001/XMLSchema-instance" xsi:noNamespaceSchemaLocation="http://sumo.dlr.de/xsd/fcd_file.xsd">
    <timestep time="0.00"/>
    <timestep time="1.00"/>
    <timestep time="2.00"/>
    <timestep time="3.00"/>
    <timestep time="4.00"/>
    <timestep time="5.00"/>
    <timestep time="6.00"/>
    <timestep time="7.00"/>
    <timestep time="8.00"/>
    <timestep time="9.00"/>
    <timestep time="10.00"/>
    <timestep time="11.00"/>
    <timestep time="12.00"/>
    <timestep time="13.00"/>
    <timestep time="14.00"/>
    <timestep time="15.00"/>
    <timestep time="16.00"/>
    <timestep time="17.00"/>
    <timestep time="18.00"/>
    <timestep time="19.00"/>
    <timestep time="20.00"/>
    <timestep time="21.00"/>
    <timestep time="22.00"/>
    <timestep time="23.00"/>
    <timestep time="24.00"/>
    <timestep time="25.00"/>
    <timestep time="26.00"/>
    <timestep time="27.00"/>
    <timestep time="28.00"/>
    <timestep time="29.00"/>
    <timestep time="30.00"/>
    <timestep time="31.00"/>
    <timestep time="32.00"/>
    <timestep time="33.00"/>
    <timestep time="34.00"/>
    <timestep time="35.00"/>
    <timestep time="36.00"/>
    <timestep time="37.00"/>
    <timestep time="38.00"/>
    <timestep time="39.00"/>
    <timestep time="40.00"/>
    <timestep time="41.00"/>
    <timestep time="42.00"/>
    <timestep time="43.00"/>
    <timestep time="44.00"/>
    <timestep time="45.00"/>
    <timestep time="46.00"/>
    <timestep time="47.00"/>
    <timestep time="48.00"/>
    <timestep time="49.00"/>
    <timestep time="50.00"/>
    <timestep time="51.00"/>
    <timestep time="52.00"/>
    <timestep time="53.00"/>
    <timestep time="54.00"/>
    <timestep time="55.00"/>
    <timestep time="56.00"/>
    <timestep time="57.00"/>
    <timestep time="58.00"/>
    <timestep time="59.00"/>
    <timestep time="60.00"/>
    <timestep time="61.00"/>
    <timestep time="62.00"/>
    <timestep time="63.00"/>
    <timestep time="64.00"/>
    <timestep time="65.00"/>
    <timestep time="66.00"/>
    <timestep time="67.00"/>
    <timestep time="68.00"/>
    <timestep time="69.00"/>
    <timestep time="70.00"/>
    <timestep time="71.00"/>
    <timestep time="72.00"/>
    <timestep time="73.00"/>
    <timestep time="74.00"/>
    <timestep time="75.00"/>
    <timestep time="76.00"/>
    <timestep time="77.00"/>
    <timestep time="78.00"/>
    <timestep time="79.00"/>
    <timestep time="80.00"/>
    <timestep time="81.00"/>
    <timestep time="82.00"/>
    <timestep time="83.00"/>
    <timestep time="84.00"/>
    <timestep time="85.00"/>
    <timestep time="86.00"/>
    <timestep time="87.00"/>
    <timestep time="88.00"/>
    <timestep time="89.00"/>
    <timestep time="90.00"/>
    <timestep time="91.00"/>
    <timestep time="92.00"/>
    <timestep time="93.00"/>
    <timestep time="94.00"/>
    <timestep time="95.00"/>
    <timestep time="96.00"/>
    <timestep time="97.00"/>
    <timestep time="98.00"/>
    <timestep time="99.00"/>
    <timestep time="100.00"/>
    <timestep time="101.00"/>
    <timestep time="102.00"/>
    <timestep time="103.00"/>
    <timestep time="104.00"/>
    <timestep time="105.00"/>
    <timestep time="106.00"/>
    <timestep time="107.00"/>
    <timestep time="108.00"/>
    <timestep time="109.00"/>
    <timestep time="110.00"/>
    <timestep time="111.00"/>
    <timestep time="112.00"/>
    <timestep time="113.00"/>
    <timestep time="114.00"/>
    <timestep time="115.00"/>
    <timestep time="116.00"/>
    <timestep time="117.00"/>
    <timestep time="118.00"/>
    <timestep time="119.00"/>
    <timestep time="120.00"/>
    <timestep time="121.00"/>
    <timestep time="122.00"/>
    <timestep time="123.00"/>
    <timestep time="124.00"/>
    <timestep time="125.00"/>
    <timestep time="126.00"/>
    <timestep time="127.00"/>
    <timestep time="128.00"/>
    <timestep time="129.00">
        <vehicle id="0" x="2108.49" y="1334.81" angle="233.59" type="DEFAULT_VEHTYPE" speed="0.00" pos="5.10" lane="a203[0]_0" slope="0.00"/>
    </timestep>
    <timestep time="130.00">
        <vehicle id="0" x="2107.05" y="1333.75" angle="233.59" type="DEFAULT_VEHTYPE" speed="1.79" pos="6.89" lane="a203[0]_0" slope="0.00"/>
    </timestep>
    <timestep time="131.00">
        <vehicle id="0" x="2104.02" y="1331.52" angle="233.59" type="DEFAULT_VEHTYPE" speed="3.76" pos="10.65" lane="a203[0]_0" slope="0.00"/>
    </timestep>
    <timestep time="132.00">
        <vehicle id="0" x="2099.60" y="1328.26" angle="233.59" type="DEFAULT_VEHTYPE" speed="5.49" pos="16.14" lane="a203[0]_0" slope="0.00"/>
    </timestep>
    <timestep time="133.00">
        <vehicle id="0" x="2093.67" y="1323.88" angle="233.59" type="DEFAULT_VEHTYPE" speed="7.38" pos="23.51" lane="a203[0]_0" slope="0.00"/>
    </timestep>
    <timestep time="134.00">
        <vehicle id="0" x="2085.97" y="1318.21" angle="233.59" type="DEFAULT_VEHTYPE" speed="9.56" pos="33.07" lane="a203[0]_0" slope="0.00"/>
    </timestep>
    <timestep time="135.00">
        <vehicle id="0" x="2076.31" y="1311.08" angle="233.59" type="DEFAULT_VEHTYPE" speed="12.01" pos="45.08" lane="a203[0]_0" slope="0.00"/>
    </timestep>
    <timestep time="136.00">
        <vehicle id="0" x="2065.38" y="1303.02" angle="233.59" type="DEFAULT_VEHTYPE" speed="13.59" pos="58.67" lane="a203[0]_0" slope="0.00"/>
    </timestep>
    <timestep time="137.00">
        <vehicle id="0" x="2053.54" y="1294.29" angle="233.59" type="DEFAULT_VEHTYPE" speed="14.71" pos="73.37" lane="a203[0]_0" slope="0.00"/>
        <vehicle id="1" x="1333.43" y="5.88" angle="10.07" type="DEFAULT_VEHTYPE" speed="0.00" pos="5.10" lane="a195_0" slope="0.00"/>
    </timestep>
    <timestep time="138.00">
        <vehicle id="0" x="2042.01" y="1285.78" angle="233.59" type="DEFAULT_VEHTYPE" speed="14.33" pos="87.70" lane="a203[0]_0" slope="0.00"/>
        <vehicle id="1" x="1333.84" y="8.19" angle="10.07" type="DEFAULT_VEHTYPE" speed="2.34" pos="7.44" lane="a195_0" slope="0.00"/>
    </timestep>
    <timestep time="139.00">
        <vehicle id="0" x="2031.17" y="1277.78" angle="233.59" type="DEFAULT_VEHTYPE" speed="13.48" pos="101.18" lane="a203[0]_0" slope="0.00"/>
        <vehicle id="1" x="1334.50" y="11.91" angle="10.07" type="DEFAULT_VEHTYPE" speed="3.78" pos="11.22" lane="a195_0" slope="0.00"/>
    </timestep>
    <timestep time="140.00">
        <vehicle id="0" x="2019.92" y="1269.49" angle="233.59" type="DEFAULT_VEHTYPE" speed="13.98" pos="115.15" lane="a203[0]_0" slope="0.00"/>
        <vehicle id="1" x="1335.95" y="17.97" angle="13.95" type="DEFAULT_VEHTYPE" speed="6.23" pos="17.45" lane="a195_0" slope="0.00"/>
    </timestep>
    <timestep time="141.00">
        <vehicle id="0" x="2008.33" y="1260.94" angle="233.59" type="DEFAULT_VEHTYPE" speed="14.40" pos="129.55" lane="a203[0]_0" slope="0.00"/>
        <vehicle id="1" x="1337.90" y="25.82" angle="13.95" type="DEFAULT_VEHTYPE" speed="8.09" pos="25.55" lane="a195_0" slope="0.00"/>
    </timestep>
    <timestep time="142.00">
        <vehicle id="0" x="1996.57" y="1252.27" angle="233.59" type="DEFAULT_VEHTYPE" speed="14.61" pos="144.16" lane="a203[0]_0" slope="0.00"/>
        <vehicle id="1" x="1340.41" y="35.91" angle="13.95" type="DEFAULT_VEHTYPE" speed="10.40" pos="35.94" lane="a195_0" slope="0.00"/>
    </timestep>
    <timestep time="143.00">
        <vehicle id="0" x="1985.06" y="1243.77" angle="233.59" type="DEFAULT_VEHTYPE" speed="14.31" pos="158.47" lane="a203[0]_0" slope="0.00"/>
        <vehicle id="1" x="1343.92" y="47.90" angle="16.93" type="DEFAULT_VEHTYPE" speed="12.49" pos="48.44" lane="a195_0" slope="0.00"/>
    </timestep>
    <timestep time="144.00">
        <vehicle id="0" x="1973.50" y="1235.25" angle="233.59" type="DEFAULT_VEHTYPE" speed="14.36" pos="172.83" lane="a203[0]_0" slope="0.00"/>
        <vehicle id="1" x="1347.27" y="59.29" angle="16.22" type="DEFAULT_VEHTYPE" speed="11.87" pos="60.31" lane="a195_0" slope="0.00"/>
    </timestep>
    <timestep time="145.00">
        <vehicle id="0" x="1962.16" y="1226.88" angle="233.59" type="DEFAULT_VEHTYPE" speed="14.09" pos="186.92" lane="a203[0]_0" slope="0.00"/>
        <vehicle id="1" x="1350.67" y="71.00" angle="16.22" type="DEFAULT_VEHTYPE" speed="12.20" pos="72.51" lane="a195_0" slope="0.00"/>
    </timestep>
    <timestep time="146.00">
        <vehicle id="0" x="1950.89" y="1218.57" angle="233.59" type="DEFAULT_VEHTYPE" speed="14.01" pos="200.93" lane="a203[0]_0" slope="0.00"/>
        <vehicle id="1" x="1354.00" y="82.43" angle="16.22" type="DEFAULT_VEHTYPE" speed="11.91" pos="84.41" lane="a195_0" slope="0.00"/>
    </timestep>
    <timestep time="147.00">
        <vehicle id="0" x="1940.05" y="1210.57" angle="233.59" type="DEFAULT_VEHTYPE" speed="13.47" pos="214.40" lane="a203[0]_0" slope="0.00"/>
        <vehicle id="1" x="1357.64" y="93.78" angle="18.83" type="DEFAULT_VEHTYPE" speed="11.92" pos="96.33" lane="a195_0" slope="0.00"/>
    </timestep>
    <timestep time="148.00">
        <vehicle id="0" x="1928.88" y="1202.33" angle="233.59" type="DEFAULT_VEHTYPE" speed="13.88" pos="228.28" lane="a203[0]_0" slope="0.00"/>
        <vehicle id="1" x="1361.51" y="105.13" angle="18.83" type="DEFAULT_VEHTYPE" speed="11.99" pos="108.32" lane="a195_0" slope="0.00"/>
    </timestep>
    <timestep time="149.00">
        <vehicle id="0" x="1917.84" y="1194.19" angle="233.59" type="DEFAULT_VEHTYPE" speed="13.71" pos="242.00" lane="a203[0]_0" slope="0.00"/>
        <vehicle id="1" x="1365.65" y="117.28" angle="18.83" type="DEFAULT_VEHTYPE" speed="12.84" pos="121.16" lane="a195_0" slope="0.00"/>
    </timestep>
    <timestep time="150.00">
        <vehicle id="0" x="1906.89" y="1186.11" angle="233.59" type="DEFAULT_VEHTYPE" speed="13.61" pos="255.61" lane="a203[0]_0" slope="0.00"/>
        <vehicle id="1" x="1369.77" y="129.17" angle="19.32" type="DEFAULT_VEHTYPE" speed="12.59" pos="6.81" lane=":a50_1_0" slope="0.00"/>
    </timestep>
    <timestep time="151.00">
        <vehicle id="0" x="1895.25" y="1177.53" angle="233.59" type="DEFAULT_VEHTYPE" speed="14.46" pos="270.06" lane="a203[0]_0" slope="0.00"/>
        <vehicle id="1" x="1373.80" y="140.65" angle="19.32" type="DEFAULT_VEHTYPE" speed="12.16" pos="18.97" lane=":a50_1_0" slope="0.00"/>
    </timestep>
    <timestep time="152.00">
        <vehicle id="0" x="1883.66" y="1168.98" angle="233.59" type="DEFAULT_VEHTYPE" speed="14.41" pos="284.47" lane="a203[0]_0" slope="0.00"/>
        <vehicle id="1" x="1378.10" y="151.78" angle="21.55" type="DEFAULT_VEHTYPE" speed="11.94" pos="9.72" lane="a61_0" slope="0.00"/>
    </timestep>
    <timestep time="153.00">
        <vehicle id="0" x="1872.48" y="1160.73" angle="233.59" type="DEFAULT_VEHTYPE" speed="13.90" pos="298.37" lane="a203[0]_0" slope="0.00"/>
        <vehicle id="1" x="1382.46" y="162.83" angle="21.55" type="DEFAULT_VEHTYPE" speed="11.87" pos="21.60" lane="a61_0" slope="0.00"/>
    </timestep>
    <timestep time="154.00">
        <vehicle id="0" x="1861.44" y="1152.60" angle="233.59" type="DEFAULT_VEHTYPE" speed="13.71" pos="312.07" lane="a203[0]_0" slope="0.00"/>
        <vehicle id="1" x="1386.91" y="174.09" angle="21.55" type="DEFAULT_VEHTYPE" speed="12.11" pos="33.71" lane="a61_0" slope="0.00"/>
        <vehicle id="2" x="1333.43" y="5.88" angle="10.07" type="DEFAULT_VEHTYPE" speed="0.00" pos="5.10" lane="a195_0" slope="0.00"/>
    </timestep>
    <timestep time="155.00">
        <vehicle id="0" x="1849.66" y="1143.90" angle="233.59" type="DEFAULT_VEHTYPE" speed="14.65" pos="326.72" lane="a203[0]_0" slope="0.00"/>
        <vehicle id="1" x="1391.67" y="186.16" angle="21.55" type="DEFAULT_VEHTYPE" speed="12.97" pos="46.68" lane="a61_0" slope="0.00"/>
        <vehicle id="2" x="1333.79" y="7.88" angle="10.07" type="DEFAULT_VEHTYPE" speed="2.03" pos="7.13" lane="a195_0" slope="0.00"/>
    </timestep>
    <timestep time="156.00">
        <vehicle id="0" x="1838.40" y="1135.60" angle="233.59" type="DEFAULT_VEHTYPE" speed="13.98" pos="340.70" lane="a203[0]_0" slope="0.00"/>
        <vehicle id="1" x="1396.23" y="197.68" angle="21.55" type="DEFAULT_VEHTYPE" speed="12.39" pos="59.07" lane="a61_0" slope="0.00"/>
        <vehicle id="2" x="1334.45" y="11.63" angle="10.07" type="DEFAULT_VEHTYPE" speed="3.81" pos="10.94" lane="a195_0" slope="0.00"/>
    </timestep>
    <timestep time="157.00">
        <vehicle id="0" x="1826.63" y="1126.92" angle="233.59" type="DEFAULT_VEHTYPE" speed="14.63" pos="355.33" lane="a203[0]_0" slope="0.00"/>
        <vehicle id="1" x="1400.73" y="209.09" angle="21.55" type="DEFAULT_VEHTYPE" speed="12.27" pos="71.34" lane="a61_0" slope="0.00"/>
        <vehicle id="2" x="1335.91" y="17.82" angle="13.95" type="DEFAULT_VEHTYPE" speed="6.36" pos="17.30" lane="a195_0" slope="0.00"/>
    </timestep>
    <timestep time="158.00">
        <vehicle id="0" x="1815.27" y="1118.54" angle="233.59" type="DEFAULT_VEHTYPE" speed="14.12" pos="369.45" lane="a203[0]_0" slope="0.00"/>
        <vehicle id="1" x="1405.50" y="221.16" angle="21.55" type="DEFAULT_VEHTYPE" speed="12.98" pos="84.32" lane="a61_0" slope="0.00"/>
        <vehicle id="2" x="1337.83" y="25.55" angle="13.95" type="DEFAULT_VEHTYPE" speed="7.97" pos="25.27" lane="a195_0" slope="0.00"/>
    </timestep>
    <timestep time="159.00">
        <vehicle id="0" x="1804.17" y="1110.35" angle="233.59" type="DEFAULT_VEHTYPE" speed="13.79" pos="383.24" lane="a203[0]_0" slope="0.00"/>
        <vehicle id="1" x="1409.93" y="232.39" angle="21.55" type="DEFAULT_VEHTYPE" speed="12.07" pos="96.38" lane="a61_0" slope="0.00"/>
        <vehicle id="2" x="1340.18" y="35.00" angle="13.95" type="DEFAULT_VEHTYPE" speed="9.73" pos="35.00" lane="a195_0" slope="0.00"/>
    </timestep>
    <timestep time="160.00">
        <vehicle id="0" x="1796.48" y="1104.68" angle="233.59" type="DEFAULT_VEHTYPE" speed="9.56" pos="392.80" lane="a203[0]_0" slope="0.00"/>
        <vehicle id="1" x="1414.60" y="244.21" angle="21.55" type="DEFAULT_VEHTYPE" speed="12.71" pos="109.09" lane="a61_0" slope="0.00"/>
        <vehicle id="2" x="1343.46" y="46.39" angle="16.93" type="DEFAULT_VEHTYPE" speed="11.86" pos="46.86" lane="a195_0" slope="0.00"/>
    </timestep>
    <timestep time="161.00">
        <vehicle id="0" x="1792.41" y="1101.67" angle="233.59" type="DEFAULT_VEHTYPE" speed="5.06" pos="397.86" lane="a203[0]_0" slope="0.00"/>
        <vehicle id="1" x="1419.13" y="255.67" angle="21.55" type="DEFAULT_VEHTYPE" speed="12.32" pos="121.42" lane="a61_0" slope="0.00"/>
        <vehicle id="2" x="1347.16" y="58.90" angle="16.22" type="DEFAULT_VEHTYPE" speed="13.05" pos="59.91" lane="a195_0" slope="0.00"/>
    </timestep>
    <timestep time="162.00">
        <vehicle id="0" x="1791.20" y="1100.78" angle="233.59" type="DEFAULT_VEHTYPE" speed="1.51" pos="399.36" lane="a203[0]_0" slope="0.00"/>
        <vehicle id="1" x="1423.56" y="266.89" angle="21.55" type="DEFAULT_VEHTYPE" speed="12.06" pos="133.48" lane="a61_0" slope="0.00"/>
        <vehicle id="2" x="1350.90" y="71.76" angle="16.22" type="DEFAULT_VEHTYPE" speed="13.39" pos="73.30" lane="a195_0" slope="0.00"/>
    </timestep>
    <timestep time="163.00">
        <vehicle id="0" x="1790.77" y="1100.46" angle="233.59" type="DEFAULT_VEHTYPE" speed="0.53" pos="399.90" lane="a203[0]_0" slope="0.00"/>
        <vehicle id="1" x="1428.34" y="279.01" angle="21.55" type="DEFAULT_VEHTYPE" speed="13.03" pos="146.51" lane="a61_0" slope="0.00"/>
        <vehicle id="2" x="1354.46" y="84.02" angle="16.22" type="DEFAULT_VEHTYPE" speed="12.77" pos="86.07" lane="a195_0" slope="0.00"/>
    </timestep>
    <timestep time="164.00">
        <vehicle id="0" x="1790.65" y="1100.38" angle="233.59" type="DEFAULT_VEHTYPE" speed="0.15" pos="400.05" lane="a203[0]_0" slope="0.00"/>
        <vehicle id="1" x="1432.81" y="290.32" angle="21.55" type="DEFAULT_VEHTYPE" speed="12.16" pos="158.67" lane="a61_0" slope="0.00"/>
        <vehicle id="2" x="1358.48" y="96.24" angle="18.83" type="DEFAULT_VEHTYPE" speed="12.87" pos="98.93" lane="a195_0" slope="0.00"/>
    </timestep>
    <timestep time="165.00">
        <vehicle id="0" x="1790.65" y="1100.37" angle="233.59" type="DEFAULT_VEHTYPE" speed="0.00" pos="400.05" lane="a203[0]_0" slope="0.00"/>
        <vehicle id="1" x="1437.37" y="301.87" angle="21.55" type="DEFAULT_VEHTYPE" speed="12.43" pos="171.09" lane="a61_0" slope="0.00"/>
        <vehicle id="2" x="1362.68" y="108.57" angle="18.83" type="DEFAULT_VEHTYPE" speed="13.03" pos="111.96" lane="a195_0" slope="0.00"/>
    </timestep>
    <timestep time="166.00">
        <vehicle id="0" x="1790.65" y="1100.37" angle="233.59" type="DEFAULT_VEHTYPE" speed="0.00" pos="400.05" lane="a203[0]_0" slope="0.00"/>
        <vehicle id="1" x="1441.94" y="313.45" angle="21.55" type="DEFAULT_VEHTYPE" speed="12.45" pos="183.54" lane="a61_0" slope="0.00"/>
        <vehicle id="2" x="1366.74" y="120.47" angle="18.83" type="DEFAULT_VEHTYPE" speed="12.57" pos="124.53" lane="a195_0" slope="0.00"/>
    </timestep>
    <timestep time="167.00">
        <vehicle id="0" x="1789.15" y="1099.31" angle="233.94" type="DEFAULT_VEHTYPE" speed="1.83" pos="0.83" lane=":a78_0_0" slope="0.00"/>
        <vehicle id="1" x="1445.98" y="323.69" angle="21.55" type="DEFAULT_VEHTYPE" speed="11.01" pos="194.54" lane="a61_0" slope="0.00"/>
        <vehicle id="2" x="1368.58" y="128.28" angle="10.63" type="DEFAULT_VEHTYPE" speed="8.07" pos="5.66" lane=":a50_2_0" slope="0.00"/>
    </timestep>
    <timestep time="168.00">
        <vehicle id="0" x="1786.08" y="1097.22" angle="235.54" type="DEFAULT_VEHTYPE" speed="3.72" pos="4.56" lane=":a78_0_0" slope="0.00"/>
        <vehicle id="1" x="1448.87" y="329.91" angle="26.22" type="DEFAULT_VEHTYPE" speed="6.90" pos="1.57" lane=":a48_3_0" slope="0.00"/>
        <vehicle id="2" x="1367.17" y="133.30" angle="343.59" type="DEFAULT_VEHTYPE" speed="5.36" pos="11.02" lane=":a50_2_0" slope="0.00"/>
    </timestep>
    <timestep time="169.00">
        <vehicle id="0" x="1780.89" y="1094.09" angle="239.60" type="DEFAULT_VEHTYPE" speed="6.06" pos="10.62" lane=":a78_0_0" slope="0.00"/>
        <vehicle id="1" x="1454.51" y="331.45" angle="81.78" type="DEFAULT_VEHTYPE" speed="6.19" pos="7.76" lane=":a48_3_0" slope="0.00"/>
        <vehicle id="2" x="1361.15" y="137.06" angle="294.93" type="DEFAULT_VEHTYPE" speed="7.30" pos="1.88" lane="a159_0" slope="0.00"/>
    </timestep>
    <timestep time="170.00">
        <vehicle id="0" x="1773.98" y="1091.79" angle="256.32" type="DEFAULT_VEHTYPE" speed="7.39" pos="18.01" lane=":a78_0_0" slope="0.00"/>
        <vehicle id="1" x="1460.32" y="329.85" angle="107.16" type="DEFAULT_VEHTYPE" speed="6.05" pos="0.80" lane="a58[0]_0" slope="0.00"/>
        <vehicle id="2" x="1351.88" y="140.11" angle="288.24" type="DEFAULT_VEHTYPE" speed="9.76" pos="11.64" lane="a159_0" slope="0.00"/>
    </timestep>
    <timestep time="171.00">
        <vehicle id="0" x="1765.88" y="1094.93" angle="295.59" type="DEFAULT_VEHTYPE" speed="8.78" pos="6.73" lane="b12_0" slope="0.00"/>
        <vehicle id="1" x="1467.82" y="327.00" angle="110.79" type="DEFAULT_VEHTYPE" speed="8.02" pos="8.82" lane="a58[0]_0" slope="0.00"/>
        <vehicle id="2" x="1341.16" y="143.65" angle="288.24" type="DEFAULT_VEHTYPE" speed="11.29" pos="22.93" lane="a159_0" slope="0.00"/>
    </timestep>
    <timestep time="172.00">
        <vehicle id="0" x="1755.38" y="1096.41" angle="295.59" type="DEFAULT_VEHTYPE" speed="10.10" pos="16.83" lane="b12_1" slope="0.00"/>
        <vehicle id="1" x="1476.98" y="323.80" angle="107.76" type="DEFAULT_VEHTYPE" speed="9.71" pos="18.54" lane="a58[0]_0" slope="0.00"/>
        <vehicle id="2" x="1328.49" y="147.82" angle="288.24" type="DEFAULT_VEHTYPE" speed="13.34" pos="36.27" lane="a159_0" slope="0.00"/>
    </timestep>
    <timestep time="173.00">
        <vehicle id="0" x="1744.87" y="1101.44" angle="295.59" type="DEFAULT_VEHTYPE" speed="11.65" pos="28.48" lane="b12_1" slope="0.00"/>
        <vehicle id="1" x="1487.70" y="321.38" angle="98.74" type="DEFAULT_VEHTYPE" speed="11.04" pos="29.58" lane="a58[0]_0" slope="0.00"/>
        <vehicle id="2" x="1315.77" y="152.01" angle="288.24" type="DEFAULT_VEHTYPE" speed="13.39" pos="49.67" lane="a159_0" slope="0.00"/>
        <vehicle id="3" x="1333.43" y="5.88" angle="10.07" type="DEFAULT_VEHTYPE" speed="0.00" pos="5.10" lane="a195_0" slope="0.00"/>
    </timestep>
    <timestep time="174.00">
        <vehicle id="0" x="1732.88" y="1107.19" angle="295.59" type="DEFAULT_VEHTYPE" speed="13.29" pos="41.78" lane="b12_1" slope="0.00"/>
        <vehicle id="1" x="1499.74" y="324.37" angle="58.82" type="DEFAULT_VEHTYPE" speed="12.95" pos="42.52" lane="a58[0]_0" slope="0.00"/>
        <vehicle id="2" x="1302.97" y="156.23" angle="288.24" type="DEFAULT_VEHTYPE" speed="13.48" pos="63.14" lane="a159_0" slope="0.00"/>
        <vehicle id="3" x="1333.80" y="7.96" angle="10.07" type="DEFAULT_VEHTYPE" speed="2.12" pos="7.22" lane="a195_0" slope="0.00"/>
    </timestep>
    <timestep time="175.00">
        <vehicle id="0" x="1720.26" y="1113.23" angle="295.59" type="DEFAULT_VEHTYPE" speed="13.99" pos="55.77" lane="b12_1" slope="0.00"/>
        <vehicle id="1" x="1498.75" y="333.82" angle="345.56" type="DEFAULT_VEHTYPE" speed="10.43" pos="52.96" lane="a58[0]_0" slope="0.00"/>
        <vehicle id="2" x="1290.50" y="160.34" angle="288.24" type="DEFAULT_VEHTYPE" speed="13.13" pos="76.27" lane="a159_0" slope="0.00"/>
        <vehicle id="3" x="1334.52" y="12.01" angle="10.07" type="DEFAULT_VEHTYPE" speed="4.11" pos="11.33" lane="a195_0" slope="0.00"/>
    </timestep>
    <timestep time="176.00">
        <vehicle id="0" x="1707.96" y="1119.12" angle="295.59" type="DEFAULT_VEHTYPE" speed="13.64" pos="69.41" lane="b12_1" slope="0.00"/>
        <vehicle id="1" x="1497.27" y="339.56" angle="345.56" type="DEFAULT_VEHTYPE" speed="5.93" pos="58.89" lane="a58[0]_0" slope="0.00"/>
        <vehicle id="2" x="1277.50" y="164.62" angle="288.24" type="DEFAULT_VEHTYPE" speed="13.69" pos="89.97" lane="a159_0" slope="0.00"/>
        <vehicle id="3" x="1335.81" y="17.41" angle="13.84" type="DEFAULT_VEHTYPE" speed="5.55" pos="16.88" lane="a195_0" slope="0.00"/>
    </timestep>
    <timestep time="177.00">
        <vehicle id="0" x="1695.18" y="1125.24" angle="295.59" type="DEFAULT_VEHTYPE" speed="14.17" pos="83.58" lane="b12_1" slope="0.00"/>
        <vehicle id="1" x="1498.26" y="339.50" angle="13.02" type="DEFAULT_VEHTYPE" speed="2.88" pos="1.82" lane=":a47_1_0" slope="0.00"/>
        <vehicle id="2" x="1265.30" y="168.64" angle="288.24" type="DEFAULT_VEHTYPE" speed="12.84" pos="102.81" lane="a159_0" slope="0.00"/>
        <vehicle id="3" x="1337.68" y="24.94" angle="13.95" type="DEFAULT_VEHTYPE" speed="7.76" pos="24.64" lane="a195_0" slope="0.00"/>
    </timestep>
    <timestep time="178.00">
        <vehicle id="0" x="1682.34" y="1131.39" angle="295.59" type="DEFAULT_VEHTYPE" speed="14.24" pos="97.82" lane="b12_1" slope="0.00"/>
        <vehicle id="1" x="1500.50" y="340.13" angle="83.71" type="DEFAULT_VEHTYPE" speed="2.33" pos="1.76" lane="a58[1]_0" slope="0.00"/>
        <vehicle id="2" x="1252.29" y="172.93" angle="288.24" type="DEFAULT_VEHTYPE" speed="13.70" pos="116.51" lane="a159_0" slope="0.00"/>
        <vehicle id="3" x="1340.03" y="34.38" angle="13.95" type="DEFAULT_VEHTYPE" speed="9.72" pos="34.36" lane="a195_0" slope="0.00"/>
    </timestep>
    <timestep time="179.00">
        <vehicle id="0" x="1670.15" y="1137.23" angle="295.59" type="DEFAULT_VEHTYPE" speed="13.52" pos="111.33" lane="b12_1" slope="0.00"/>
        <vehicle id="1" x="1505.09" y="341.60" angle="72.24" type="DEFAULT_VEHTYPE" speed="4.83" pos="6.59" lane="a58[1]_0" slope="0.00"/>
        <vehicle id="2" x="1239.91" y="177.00" angle="288.24" type="DEFAULT_VEHTYPE" speed="13.03" pos="129.54" lane="a159_0" slope="0.00"/>
        <vehicle id="3" x="1343.06" y="45.07" angle="16.93" type="DEFAULT_VEHTYPE" speed="11.12" pos="45.47" lane="a195_0" slope="0.00"/>
    </timestep>
    <timestep time="180.00">
        <vehicle id="0" x="1657.38" y="1143.35" angle="295.59" type="DEFAULT_VEHTYPE" speed="14.16" pos="125.50" lane="b12_1" slope="0.00"/>
        <vehicle id="1" x="1511.85" y="343.76" angle="72.24" type="DEFAULT_VEHTYPE" speed="7.09" pos="13.68" lane="a58[1]_0" slope="0.00"/>
        <vehicle id="2" x="1226.68" y="181.37" angle="288.24" type="DEFAULT_VEHTYPE" speed="13.94" pos="143.47" lane="a159_0" slope="0.00"/>
        <vehicle id="3" x="1346.79" y="57.64" angle="16.22" type="DEFAULT_VEHTYPE" speed="13.12" pos="58.59" lane="a195_0" slope="0.00"/>
    </timestep>
    <timestep time="181.00">
        <vehicle id="0" x="1644.43" y="1149.55" angle="295.59" type="DEFAULT_VEHTYPE" speed="14.36" pos="139.85" lane="b12_1" slope="0.00"/>
        <vehicle id="1" x="1520.31" y="346.47" angle="72.24" type="DEFAULT_VEHTYPE" speed="8.88" pos="22.56" lane="a58[1]_0" slope="0.00"/>
        <vehicle id="2" x="1213.83" y="185.60" angle="288.24" type="DEFAULT_VEHTYPE" speed="13.52" pos="157.00" lane="a159_0" slope="0.00"/>
        <vehicle id="3" x="1350.97" y="72.01" angle="16.22" type="DEFAULT_VEHTYPE" speed="14.97" pos="73.56" lane="a195_0" slope="0.00"/>
    </timestep>
    <timestep time="182.00">
        <vehicle id="0" x="1630.91" y="1152.48" angle="295.59" type="DEFAULT_VEHTYPE" speed="13.48" pos="153.34" lane="b12_2" slope="0.00"/>
        <vehicle id="1" x="1530.90" y="349.87" angle="72.24" type="DEFAULT_VEHTYPE" speed="11.12" pos="33.69" lane="a58[1]_0" slope="0.00"/>
        <vehicle id="2" x="1200.56" y="189.97" angle="288.24" type="DEFAULT_VEHTYPE" speed="13.97" pos="170.97" lane="a159_0" slope="0.00"/>
        <vehicle id="3" x="1355.12" y="86.29" angle="16.22" type="DEFAULT_VEHTYPE" speed="14.87" pos="88.43" lane="a195_0" slope="0.00"/>
    </timestep>
    <timestep time="183.00">
        <vehicle id="0" x="1618.40" y="1158.47" angle="295.59" type="DEFAULT_VEHTYPE" speed="13.88" pos="167.21" lane="b12_2" slope="0.00"/>
        <vehicle id="1" x="1543.30" y="353.84" angle="72.24" type="DEFAULT_VEHTYPE" speed="13.02" pos="46.71" lane="a58[1]_0" slope="0.00"/>
        <vehicle id="2" x="1188.16" y="194.06" angle="288.24" type="DEFAULT_VEHTYPE" speed="13.06" pos="184.03" lane="a159_0" slope="0.00"/>
        <vehicle id="3" x="1359.70" y="99.82" angle="18.83" type="DEFAULT_VEHTYPE" speed="14.29" pos="102.72" lane="a195_0" slope="0.00"/>
    </timestep>
    <timestep time="184.00">
        <vehicle id="0" x="1605.47" y="1164.67" angle="295.59" type="DEFAULT_VEHTYPE" speed="14.34" pos="181.55" lane="b12_2" slope="0.00"/>
        <vehicle id="1" x="1555.44" y="357.73" angle="72.24" type="DEFAULT_VEHTYPE" speed="12.75" pos="59.46" lane="a58[1]_0" slope="0.00"/>
        <vehicle id="2" x="1175.19" y="198.33" angle="288.24" type="DEFAULT_VEHTYPE" speed="13.65" pos="197.68" lane="a159_0" slope="0.00"/>
        <vehicle id="3" x="1364.03" y="112.51" angle="18.83" type="DEFAULT_VEHTYPE" speed="13.40" pos="116.12" lane="a195_0" slope="0.00"/>
    </timestep>
    <timestep time="185.00">
        <vehicle id="0" x="1593.02" y="1170.63" angle="295.59" type="DEFAULT_VEHTYPE" speed="13.80" pos="195.36" lane="b12_2" slope="0.00"/>
        <vehicle id="1" x="1567.37" y="361.55" angle="72.24" type="DEFAULT_VEHTYPE" speed="12.52" pos="71.98" lane="a58[1]_0" slope="0.00"/>
        <vehicle id="2" x="1162.54" y="202.50" angle="288.24" type="DEFAULT_VEHTYPE" speed="13.32" pos="211.00" lane="a159_0" slope="0.00"/>
        <vehicle id="3" x="1367.46" y="122.58" angle="18.83" type="DEFAULT_VEHTYPE" speed="10.65" pos="126.77" lane="a195_0" slope="0.00"/>
    </timestep>
    <timestep time="186.00">
        <vehicle id="0" x="1580.23" y="1176.75" angle="295.59" type="DEFAULT_VEHTYPE" speed="14.18" pos="209.54" lane="b12_2" slope="0.00"/>
        <vehicle id="1" x="1578.84" y="365.23" angle="72.24" type="DEFAULT_VEHTYPE" speed="12.05" pos="84.03" lane="a58[1]_0" slope="0.00"/>
        <vehicle id="2" x="1150.08" y="206.60" angle="288.24" type="DEFAULT_VEHTYPE" speed="13.12" pos="224.12" lane="a159_0" slope="0.00"/>
        <vehicle id="3" x="1368.38" y="130.29" angle="3.13" type="DEFAULT_VEHTYPE" speed="7.86" pos="7.69" lane=":a50_2_0" slope="0.00"/>
    </timestep>
    <timestep time="187.00">
        <vehicle id="0" x="1567.68" y="1182.76" angle="295.59" type="DEFAULT_VEHTYPE" speed="13.91" pos="223.45" lane="b12_2" slope="0.00"/>