<?xml version="1.0" encoding="UTF-8"?>

<!-- generated on 2025-03-21 17:16:50 by Eclipse SUMO sumo Version 1.21.0
<sumoConfiguration xmlns:xsi="http://www.w3.org/2001/XMLSchema-instance" xsi:noNamespaceSchemaLocation="http://sumo.dlr.de/xsd/sumoConfiguration.xsd">

    <input>
        <net-file value="${STATICPATH}/joined_lanes.net.xml"/>
        <route-files value="${SIMULATIONPATH}/generatedRoutes.rou.xml"/>
        <additional-files value="${STATICPATH}/detectors.add.xml,${STATICPATH}/joined_vtypes.add.xml,${STATICPATH}/joined_tls.add.xml"/>
    </input>

    <output>
        <fcd-output value="${SIMULATIONPATH}/fcd.xml"/>
        <queue-output value="${SIMULATIONPATH}/queue.xml"/>
        <summary-output value="${SIMULATIONPATH}/summary.xml"/>
        <tripinfo-output value="${SIMULATIONPATH}/tripinfos.xml"/>
        <vehroute-output value="${SIMULATIONPATH}/vehroute.xml"/>
        <save-state.prefix value="configs\state"/>
    </output>

    <processing>
        <ignore-junction-blocker value="1"/>
        <ignore-route-errors value="true"/>
        <time-to-teleport value="-1"/>
    </processing>

    <report>
        <log value="C:/Users/fabio/Desktop/sumo_log.txt"/>
        <no-step-log value="true"/>
    </report>

    <emissions>
        <phemlight-path value="configs\./PHEMlight/"/>
    </emissions>

    <traci_server>
        <remote-port value="60014"/>
    </traci_server>

</sumoConfiguration>
-->

<tripinfos xmlns:xsi="http://www.w3.org/2001/XMLSchema-instance" xsi:noNamespaceSchemaLocation="http://sumo.dlr.de/xsd/tripinfo_file.xsd">
    <tripinfo id="0" depart="129.00" departLane="a203[0]_0" departPos="5.10" departSpeed="0.00" departDelay="0.94" arrival="361.00" arrivalLane="b2[1][1][1]b_0" arrivalPos="325.74" arrivalSpeed="14.19" duration="232.00" routeLength="2513.32" waitingTime="31.00" waitingCount="2" stopTime="0.00" timeLoss="59.47" rerouteNo="0" devices="vehroute_0 tripinfo_0 fcd_0" vType="DEFAULT_VEHTYPE" speedFactor="1.06" vaporized=""/>
    <tripinfo id="3" depart="173.00" departLane="a195_0" departPos="5.10" departSpeed="0.00" departDelay="0.81" arrival="411.00" arrivalLane="b2[1][1][1]b_0" arrivalPos="325.74" arrivalSpeed="14.11" duration="238.00" routeLength="2435.23" waitingTime="49.00" waitingCount="1" stopTime="0.00" timeLoss="74.06" rerouteNo="0" devices="vehroute_3 tripinfo_3 fcd_3" vType="DEFAULT_VEHTYPE" speedFactor="1.08" vaporized=""/>
    <tripinfo id="2" depart="154.00" departLane="a195_0" departPos="5.10" departSpeed="0.00" departDelay="0.52" arrival="418.00" arrivalLane="b2[1][1][1]b_0" arrivalPos="325.74" arrivalSpeed="13.75" duration="264.00" routeLength="2441.66" waitingTime="63.00" waitingCount="1" stopTime="0.00" timeLoss="86.73" rerouteNo="0" devices="vehroute_2 tripinfo_2 fcd_2" vType="DEFAULT_VEHTYPE" speedFactor="1.01" vaporized=""/>
    <tripinfo id="1" depart="137.00" departLane="a195_0" departPos="5.10" departSpeed="0.00" departDelay="0.12" arrival="419.00" arrivalLane="b53_0" arrivalPos="63.75" arrivalSpeed="12.40" duration="282.00" routeLength="2121.87" waitingTime="81.00" waitingCount="3" stopTime="0.00" timeLoss="114.68" rerouteNo="0" devices="vehroute_1 tripinfo_1 fcd_1" vType="DEFAULT_VEHTYPE" speedFactor="0.94" vaporized=""/>
    <tripinfo id="4" depart="233.00" departLane="a195_0" departPos="5.10" departSpeed="0.00" departDelay="0.38" arrival="422.00" arrivalLane="b53_0" arrivalPos="63.75" arrivalSpeed="13.64" duration="189.00" routeLength="2121.87" waitingTime="9.00" waitingCount="1" stopTime="0.00" timeLoss="36.76" rerouteNo="0" devices="vehroute_4 tripinfo_4 fcd_4" vType="DEFAULT_VEHTYPE" speedFactor="1.03" vaporized=""/>
    <tripinfo id="6" depart="276.00" departLane="a203[0]_0" departPos="5.10" departSpeed="0.00" departDelay="0.90" arrival="495.00" arrivalLane="a20001+87[1][0]_0" arrivalPos="29.44" arrivalSpeed="13.98" duration="219.00" routeLength="2470.06" waitingTime="16.00" waitingCount="2" stopTime="0.00" timeLoss="46.14" rerouteNo="0" devices="vehroute_6 tripinfo_6 fcd_6" vType="DEFAULT_VEHTYPE" speedFactor="1.05" vaporized=""/>
    <tripinfo id="13" depart="538.00" departLane="a43[1]_0" departPos="5.10" departSpeed="0.00" departDelay="0.74" arrival="612.00" arrivalLane="a204[1][1]_0" arrivalPos="436.51" arrivalSpeed="15.07" duration="74.00" routeLength="1052.53" waitingTime="0.00" waitingCount="0" stopTime="0.00" timeLoss="6.09" rerouteNo="0" devices="vehroute_13 tripinfo_13 fcd_13" vType="DEFAULT_VEHTYPE" speedFactor="1.12" vaporized=""/>
    <tripinfo id="8" depart="380.00" departLane="a203[0]_0" departPos="5.10" departSpeed="0.00" departDelay="0.68" arrival="632.00" arrivalLane="b2[1][1][1]b_0" arrivalPos="325.74" arrivalSpeed="12.40" duration="252.00" routeLength="2513.32" waitingTime="29.00" waitingCount="2" stopTime="0.00" timeLoss="57.07" rerouteNo="0" devices="vehroute_8 tripinfo_8 fcd_8" vType="DEFAULT_VEHTYPE" speedFactor="0.94" vaporized=""/>
    <tripinfo id="10" depart="458.00" departLane="a78[0]_0" departPos="5.10" departSpeed="0.00" departDelay="0.08" arrival="657.00" arrivalLane="b53a_0" arrivalPos="257.19" arrivalSpeed="14.81" duration="199.00" routeLength="1975.46" waitingTime="45.00" waitingCount="1" stopTime="0.00" timeLoss="66.28" rerouteNo="0" devices="vehroute_10 tripinfo_10 fcd_10" vType="DEFAULT_VEHTYPE" speedFactor="1.09" vaporized=""/>
    <tripinfo id="5" depart="269.00" departLane="a36_0" departPos="5.10" departSpeed="0.00" departDelay="0.33" arrival="659.00" arrivalLane="b17[1]_0" arrivalPos="187.21" arrivalSpeed="10.62" duration="390.00" routeLength="2359.72" waitingTime="133.00" waitingCount="5" stopTime="0.00" timeLoss="179.17" rerouteNo="0" devices="vehroute_5 tripinfo_5 fcd_5" vType="DEFAULT_VEHTYPE" speedFactor="0.83" vaporized=""/>
    <tripinfo id="11" depart="480.00" departLane="a195_0" departPos="5.10" departSpeed="0.00" departDelay="0.68" arrival="666.00" arrivalLane="b53_0" arrivalPos="63.75" arrivalSpeed="13.24" duration="186.00" routeLength="2121.87" waitingTime="5.00" waitingCount="1" stopTime="0.00" timeLoss="31.72" rerouteNo="0" devices="vehroute_11 tripinfo_11 fcd_11" vType="DEFAULT_VEHTYPE" speedFactor="1.03" vaporized=""/>
    <tripinfo id="7" depart="368.00" departLane="a195_0" departPos="5.10" departSpeed="0.00" departDelay="0.26" arrival="673.00" arrivalLane="b2[1][1][1]b_0" arrivalPos="325.74" arrivalSpeed="11.65" duration="305.00" routeLength="2441.66" waitingTime="69.00" waitingCount="2" stopTime="0.00" timeLoss="103.32" rerouteNo="0" devices="vehroute_7 tripinfo_7 fcd_7" vType="DEFAULT_VEHTYPE" speedFactor="0.89" vaporized=""/>
    <tripinfo id="12" depart="482.00" departLane="a203[0]_0" departPos="5.10" departSpeed="0.00" departDelay="0.31" arrival="740.00" arrivalLane="a20001+87[1][0]_0" arrivalPos="29.44" arrivalSpeed="14.44" duration="258.00" routeLength="2470.06" waitingTime="56.00" waitingCount="3" stopTime="0.00" timeLoss="86.02" rerouteNo="0" devices="vehroute_12 tripinfo_12 fcd_12" vType="DEFAULT_VEHTYPE" speedFactor="1.05" vaporized=""/>
    <tripinfo id="9" depart="383.00" departLane="a203[0]_0" departPos="5.10" departSpeed="0.00" departDelay="2.50" arrival="760.00" arrivalLane="b2[1][1][1]b_0" arrivalPos="325.74" arrivalSpeed="11.23" duration="377.00" routeLength="2513.32" waitingTime="124.00" waitingCount="5" stopTime="0.00" timeLoss="163.41" rerouteNo="0" devices="vehroute_9 tripinfo_9 fcd_9" vType="DEFAULT_VEHTYPE" speedFactor="0.86" vaporized=""/>
    <tripinfo id="14" depart="615.00" departLane="a203[1]b_0" departPos="0.20" departSpeed="0.00" departDelay="0.61" arrival="762.00" arrivalLane="a204[1][1]_0" arrivalPos="436.51" arrivalSpeed="13.66" duration="147.00" routeLength="1626.02" waitingTime="6.00" waitingCount="1" stopTime="0.00" timeLoss="27.40" rerouteNo="0" devices="vehroute_14 tripinfo_14 fcd_14" vType="DEFAULT_VEHTYPE" speedFactor="0.99" vaporized=""/>
    <tripinfo id="21" depart="763.00" departLane="a43[1]_0" departPos="5.10" departSpeed="0.00" departDelay="0.68" arrival="886.00" arrivalLane="a204[1][1]_0" arrivalPos="436.51" arrivalSpeed="13.89" duration="123.00" routeLength="1052.53" waitingTime="30.00" waitingCount="1" stopTime="0.00" timeLoss="47.11" rerouteNo="0" devices="vehroute_21 tripinfo_21 fcd_21" vType="DEFAULT_VEHTYPE" speedFactor="1.01" vaporized=""/>
    <tripinfo id="15" depart="626.00" departLane="a153_0" departPos="5.10" departSpeed="0.00" departDelay="0.49" arrival="893.00" arrivalLane="b53a_0" arrivalPos="257.19" arrivalSpeed="11.75" duration="267.00" routeLength="2247.90" waitingTime="51.00" waitingCount="4" stopTime="0.00" timeLoss="88.58" rerouteNo="0" devices="vehroute_15 tripinfo_15 fcd_15" vType="DEFAULT_VEHTYPE" speedFactor="0.93" vaporized=""/>
    <tripinfo id="16" depart="637.00" departLane="a153_0" departPos="5.10" departSpeed="0.00" departDelay="0.21" arrival="897.00" arrivalLane="b53a_0" arrivalPos="257.19" arrivalSpeed="11.71" duration="260.00" routeLength="2246.37" waitingTime="33.00" waitingCount="3" stopTime="0.00" timeLoss="71.37" rerouteNo="0" devices="vehroute_16 tripinfo_16 fcd_16" vType="DEFAULT_VEHTYPE" speedFactor="0.88" vaporized=""/>
    <tripinfo id="18" depart="683.00" departLane="a195_0" departPos="5.10" departSpeed="0.00" departDelay="0.10" arrival="914.00" arrivalLane="b2[1][1][1]b_0" arrivalPos="325.74" arrivalSpeed="12.03" duration="231.00" routeLength="2441.66" waitingTime="15.00" waitingCount="1" stopTime="0.00" timeLoss="39.84" rerouteNo="0" devices="vehroute_18 tripinfo_18 fcd_18" vType="DEFAULT_VEHTYPE" speedFactor="0.94" vaporized=""/>
    <tripinfo id="25" depart="838.00" departLane="a43[1]_0" departPos="5.10" departSpeed="0.00" departDelay="0.48" arrival="935.00" arrivalLane="a204[1][1]_0" arrivalPos="436.51" arrivalSpeed="11.34" duration="97.00" routeLength="1052.53" waitingTime="0.00" waitingCount="0" stopTime="0.00" timeLoss="9.45" rerouteNo="0" devices="vehroute_25 tripinfo_25 fcd_25" vType="DEFAULT_VEHTYPE" speedFactor="0.87" vaporized=""/>
    <tripinfo id="19" depart="691.00" departLane="a203[0]_0" departPos="5.10" departSpeed="0.00" departDelay="0.58" arrival="971.00" arrivalLane="b2[1][1][1]b_0" arrivalPos="325.74" arrivalSpeed="14.99" duration="280.00" routeLength="2513.32" waitingTime="88.00" waitingCount="2" stopTime="0.00" timeLoss="122.01" rerouteNo="0" devices="vehroute_19 tripinfo_19 fcd_19" vType="DEFAULT_VEHTYPE" speedFactor="1.16" vaporized=""/>
    <tripinfo id="17" depart="640.00" departLane="a203[0]_0" departPos="5.10" departSpeed="0.00" departDelay="0.04" arrival="985.00" arrivalLane="b2[1][1][1]b_0" arrivalPos="325.74" arrivalSpeed="12.91" duration="345.00" routeLength="2513.32" waitingTime="119.00" waitingCount="3" stopTime="0.00" timeLoss="150.71" rerouteNo="0" devices="vehroute_17 tripinfo_17 fcd_17" vType="DEFAULT_VEHTYPE" speedFactor="0.94" vaporized=""/>
    <tripinfo id="20" depart="716.00" departLane="a36_0" departPos="5.10" departSpeed="0.00" departDelay="0.12" arrival="1007.00" arrivalLane="b17[1]_0" arrivalPos="187.21" arrivalSpeed="13.40" duration="291.00" routeLength="2359.72" waitingTime="72.00" waitingCount="5" stopTime="0.00" timeLoss="120.06" rerouteNo="0" devices="vehroute_20 tripinfo_20 fcd_20" vType="DEFAULT_VEHTYPE" speedFactor="1.02" vaporized=""/>
    <tripinfo id="23" depart="818.00" departLane="a195_0" departPos="5.10" departSpeed="0.00" departDelay="0.93" arrival="1066.00" arrivalLane="b53_0" arrivalPos="63.75" arrivalSpeed="11.92" duration="248.00" routeLength="2121.87" waitingTime="42.00" waitingCount="1" stopTime="0.00" timeLoss="70.66" rerouteNo="0" devices="vehroute_23 tripinfo_23 fcd_23" vType="DEFAULT_VEHTYPE" speedFactor="0.89" vaporized=""/>
    <tripinfo id="24" depart="825.00" departLane="a195_0" departPos="5.10" departSpeed="0.00" departDelay="0.98" arrival="1077.00" arrivalLane="b53_0" arrivalPos="63.75" arrivalSpeed="10.40" duration="252.00" routeLength="2121.87" waitingTime="33.00" waitingCount="1" stopTime="0.00" timeLoss="61.69" rerouteNo="0" devices="vehroute_24 tripinfo_24 fcd_24" vType="DEFAULT_VEHTYPE" speedFactor="0.83" vaporized=""/>
    <tripinfo id="32" depart="1006.00" departLane="a43[1]_0" departPos="5.10" departSpeed="0.00" departDelay="0.28" arrival="1092.00" arrivalLane="a204[1][1]_0" arrivalPos="436.51" arrivalSpeed="13.20" duration="86.00" routeLength="1052.53" waitingTime="0.00" waitingCount="0" stopTime="0.00" timeLoss="9.87" rerouteNo="0" devices="vehroute_32 tripinfo_32 fcd_32" vType="DEFAULT_VEHTYPE" speedFactor="1.01" vaporized=""/>
    <tripinfo id="22" depart="795.00" departLane="a203[0]_0" departPos="5.10" departSpeed="0.00" departDelay="0.11" arrival="1105.00" arrivalLane="b2[1][1][1]b_0" arrivalPos="325.74" arrivalSpeed="12.92" duration="310.00" routeLength="2513.32" waitingTime="96.00" waitingCount="2" stopTime="0.00" timeLoss="122.76" rerouteNo="0" devices="vehroute_22 tripinfo_22 fcd_22" vType="DEFAULT_VEHTYPE" speedFactor="0.97" vaporized=""/>
    <tripinfo id="28" depart="912.00" departLane="a134_0" departPos="5.10" departSpeed="0.00" departDelay="0.99" arrival="1135.00" arrivalLane="b10_0" arrivalPos="224.30" arrivalSpeed="14.67" duration="223.00" routeLength="2704.70" waitingTime="22.00" waitingCount="2" stopTime="0.00" timeLoss="49.21" rerouteNo="0" devices="vehroute_28 tripinfo_28 fcd_28" vType="DEFAULT_VEHTYPE" speedFactor="1.13" vaporized=""/>
    <tripinfo id="26" depart="877.00" departLane="a210_0" departPos="5.10" departSpeed="0.00" departDelay="0.48" arrival="1160.00" arrivalLane="b10_0" arrivalPos="224.30" arrivalSpeed="12.45" duration="283.00" routeLength="2833.68" waitingTime="35.00" waitingCount="1" stopTime="0.00" timeLoss="59.78" rerouteNo="0" devices="vehroute_26 tripinfo_26 fcd_26" vType="DEFAULT_VEHTYPE" speedFactor="0.92" vaporized=""/>
    <tripinfo id="33" depart="1071.00" departLane="a43[1]_0" departPos="5.10" departSpeed="0.00" departDelay="0.52" arrival="1190.00" arrivalLane="a204[1][1]_0" arrivalPos="436.51" arrivalSpeed="15.74" duration="119.00" routeLength="1052.53" waitingTime="37.00" waitingCount="1" stopTime="0.00" timeLoss="54.18" rerouteNo="0" devices="vehroute_33 tripinfo_33 fcd_33" vType="DEFAULT_VEHTYPE" speedFactor="1.17" vaporized=""/>
    <tripinfo id="30" depart="959.00" departLane="a195_0" departPos="5.10" departSpeed="0.00" departDelay="1.94" arrival="1204.00" arrivalLane="b53_0" arrivalPos="63.75" arrivalSpeed="15.97" duration="245.00" routeLength="2121.87" waitingTime="61.00" waitingCount="2" stopTime="0.00" timeLoss="111.43" rerouteNo="0" devices="vehroute_30 tripinfo_30 fcd_30" vType="DEFAULT_VEHTYPE" speedFactor="1.18" vaporized=""/>
    <tripinfo id="29" depart="956.00" departLane="a195_0" departPos="5.10" departSpeed="0.00" departDelay="0.61" arrival="1213.00" arrivalLane="b53_0" arrivalPos="63.75" arrivalSpeed="12.23" duration="257.00" routeLength="2118.91" waitingTime="56.00" waitingCount="2" stopTime="0.00" timeLoss="89.40" rerouteNo="0" devices="vehroute_29 tripinfo_29 fcd_29" vType="DEFAULT_VEHTYPE" speedFactor="0.93" vaporized=""/>
    <tripinfo id="31" depart="958.00" departLane="a153_0" departPos="5.10" departSpeed="0.00" departDelay="0.33" arrival="1226.00" arrivalLane="b53a_0" arrivalPos="257.19" arrivalSpeed="15.36" duration="268.00" routeLength="2246.37" waitingTime="90.00" waitingCount="3" stopTime="0.00" timeLoss="124.65" rerouteNo="0" devices="vehroute_31 tripinfo_31 fcd_31" vType="DEFAULT_VEHTYPE" speedFactor="1.15" vaporized=""/>
    <tripinfo id="27" depart="895.00" departLane="a203[0]_0" departPos="5.10" departSpeed="0.00" departDelay="0.11" arrival="1230.00" arrivalLane="b2[1][1][1]b_0" arrivalPos="325.74" arrivalSpeed="12.58" duration="335.00" routeLength="2513.32" waitingTime="111.00" waitingCount="3" stopTime="0.00" timeLoss="142.05" rerouteNo="0" devices="vehroute_27 tripinfo_27 fcd_27" vType="DEFAULT_VEHTYPE" speedFactor="0.95" vaporized=""/>
    <tripinfo id="34" depart="1165.00" departLane="a203[1]b_0" departPos="0.20" departSpeed="0.00" departDelay="0.40" arrival="1353.00" arrivalLane="a204[1][1]_0" arrivalPos="436.51" arrivalSpeed="13.38" duration="188.00" routeLength="1626.02" waitingTime="39.00" waitingCount="2" stopTime="0.00" timeLoss="68.99" rerouteNo="0" devices="vehroute_34 tripinfo_34 fcd_34" vType="DEFAULT_VEHTYPE" speedFactor="0.99" vaporized=""/>
    <tripinfo id="37" depart="1338.00" departLane="a195_0" departPos="5.10" departSpeed="0.00" departDelay="0.93" arrival="1526.00" arrivalLane="b53_0" arrivalPos="63.75" arrivalSpeed="15.23" duration="188.00" routeLength="2121.87" waitingTime="18.00" waitingCount="2" stopTime="0.00" timeLoss="54.58" rerouteNo="0" devices="vehroute_37 tripinfo_37 fcd_37" vType="DEFAULT_VEHTYPE" speedFactor="1.18" vaporized=""/>
    <tripinfo id="35" depart="1276.00" departLane="a195_0" departPos="5.10" departSpeed="0.00" departDelay="0.75" arrival="1530.00" arrivalLane="b53_0" arrivalPos="63.75" arrivalSpeed="13.94" duration="254.00" routeLength="2121.87" waitingTime="68.00" waitingCount="2" stopTime="0.00" timeLoss="100.40" rerouteNo="0" devices="vehroute_35 tripinfo_35 fcd_35" vType="DEFAULT_VEHTYPE" speedFactor="1.02" vaporized=""/>
    <tripinfo id="36" depart="1278.00" departLane="a153_0" departPos="5.10" departSpeed="0.00" departDelay="0.57" arrival="1569.00" arrivalLane="b3[1]b_0" arrivalPos="239.77" arrivalSpeed="12.91" duration="291.00" routeLength="2950.13" waitingTime="23.00" waitingCount="4" stopTime="0.00" timeLoss="67.96" rerouteNo="0" devices="vehroute_36 tripinfo_36 fcd_36" vType="DEFAULT_VEHTYPE" speedFactor="0.97" vaporized=""/>
    <tripinfo id="44" depart="1484.00" departLane="a43[1]_0" departPos="5.10" departSpeed="0.00" departDelay="0.33" arrival="1573.00" arrivalLane="a204[1][1]_0" arrivalPos="436.51" arrivalSpeed="13.63" duration="89.00" routeLength="1052.53" waitingTime="2.00" waitingCount="1" stopTime="0.00" timeLoss="15.45" rerouteNo="0" devices="vehroute_44 tripinfo_44 fcd_44" vType="DEFAULT_VEHTYPE" speedFactor="1.04" vaporized=""/>
    <tripinfo id="38" depart="1391.00" departLane="a195_0" departPos="5.10" departSpeed="0.00" departDelay="0.14" arrival="1654.00" arrivalLane="b2[1][1][1]b_0" arrivalPos="325.74" arrivalSpeed="14.32" duration="263.00" routeLength="2441.66" waitingTime="68.00" waitingCount="3" stopTime="0.00" timeLoss="101.31" rerouteNo="0" devices="vehroute_38 tripinfo_38 fcd_38" vType="DEFAULT_VEHTYPE" speedFactor="1.10" vaporized=""/>
    <tripinfo id="40" depart="1394.00" departLane="a210_0" departPos="5.10" departSpeed="0.00" departDelay="0.52" arrival="1677.00" arrivalLane="b10_0" arrivalPos="224.30" arrivalSpeed="13.27" duration="283.00" routeLength="2830.72" waitingTime="44.00" waitingCount="4" stopTime="0.00" timeLoss="84.18" rerouteNo="0" devices="vehroute_40 tripinfo_40 fcd_40" vType="DEFAULT_VEHTYPE" speedFactor="1.03" vaporized=""/>
    <tripinfo id="43" depart="1458.00" departLane="a195_0" departPos="5.10" departSpeed="0.00" departDelay="0.73" arrival="1679.00" arrivalLane="b53_0" arrivalPos="63.75" arrivalSpeed="13.77" duration="221.00" routeLength="2121.87" waitingTime="39.00" waitingCount="1" stopTime="0.00" timeLoss="68.58" rerouteNo="0" devices="vehroute_43 tripinfo_43 fcd_43" vType="DEFAULT_VEHTYPE" speedFactor="1.04" vaporized=""/>
    <tripinfo id="42" depart="1413.00" departLane="a203[0]_0" departPos="5.10" departSpeed="0.00" departDelay="0.38" arrival="1713.00" arrivalLane="b2[1][1][1]b_0" arrivalPos="325.74" arrivalSpeed="14.87" duration="300.00" routeLength="2513.32" waitingTime="96.00" waitingCount="2" stopTime="0.00" timeLoss="132.43" rerouteNo="0" devices="vehroute_42 tripinfo_42 fcd_42" vType="DEFAULT_VEHTYPE" speedFactor="1.09" vaporized=""/>
    <tripinfo id="49" depart="1623.00" departLane="a43[1]_0" departPos="5.10" departSpeed="0.00" departDelay="0.77" arrival="1722.00" arrivalLane="a204[1][1]_0" arrivalPos="436.51" arrivalSpeed="11.38" duration="99.00" routeLength="1052.53" waitingTime="0.00" waitingCount="0" stopTime="0.00" timeLoss="9.80" rerouteNo="0" devices="vehroute_49 tripinfo_49 fcd_49" vType="DEFAULT_VEHTYPE" speedFactor="0.85" vaporized=""/>
    <tripinfo id="39" depart="1392.00" departLane="a203[0]_0" departPos="5.10" departSpeed="0.00" departDelay="0.74" arrival="1726.00" arrivalLane="b2[1][1][1]b_0" arrivalPos="325.74" arrivalSpeed="11.95" duration="334.00" routeLength="2513.32" waitingTime="99.00" waitingCount="3" stopTime="0.00" timeLoss="131.40" rerouteNo="0" devices="vehroute_39 tripinfo_39 fcd_39" vType="DEFAULT_VEHTYPE" speedFactor="0.90" vaporized=""/>
    <tripinfo id="41" depart="1396.00" departLane="a203[0]_0" departPos="5.10" departSpeed="0.00" departDelay="0.66" arrival="1731.00" arrivalLane="a20001+87[1][0]_0" arrivalPos="29.44" arrivalSpeed="12.41" duration="335.00" routeLength="2470.06" waitingTime="107.00" waitingCount="3" stopTime="0.00" timeLoss="145.07" rerouteNo="0" devices="vehroute_41 tripinfo_41 fcd_41" vType="DEFAULT_VEHTYPE" speedFactor="0.96" vaporized=""/>
    <tripinfo id="45" depart="1507.00" departLane="a36_0" departPos="5.10" departSpeed="0.00" departDelay="0.11" arrival="1742.00" arrivalLane="b17[1]_0" arrivalPos="187.21" arrivalSpeed="14.55" duration="235.00" routeLength="2359.72" waitingTime="32.00" waitingCount="3" stopTime="0.00" timeLoss="74.47" rerouteNo="0" devices="vehroute_45 tripinfo_45 fcd_45" vType="DEFAULT_VEHTYPE" speedFactor="1.09" vaporized=""/>
    <tripinfo id="46" depart="1550.00" departLane="a78[0]_0" departPos="5.10" departSpeed="0.00" departDelay="0.79" arrival="1798.00" arrivalLane="b53a_0" arrivalPos="257.19" arrivalSpeed="13.25" duration="248.00" routeLength="1975.46" waitingTime="75.00" waitingCount="2" stopTime="0.00" timeLoss="102.52" rerouteNo="0" devices="vehroute_46 tripinfo_46 fcd_46" vType="DEFAULT_VEHTYPE" speedFactor="1.00" vaporized=""/>
    <tripinfo id="51" depart="1734.00" departLane="a43[1]_0" departPos="5.10" departSpeed="0.00" departDelay="0.11" arrival="1830.00" arrivalLane="a204[1][1]_0" arrivalPos="436.51" arrivalSpeed="15.25" duration="96.00" routeLength="1052.53" waitingTime="17.00" waitingCount="1" stopTime="0.00" timeLoss="31.13" rerouteNo="0" devices="vehroute_51 tripinfo_51 fcd_51" vType="DEFAULT_VEHTYPE" speedFactor="1.17" vaporized=""/>
    <tripinfo id="47" depart="1596.00" departLane="a210_0" departPos="5.10" departSpeed="0.00" departDelay="0.22" arrival="1868.00" arrivalLane="b10_0" arrivalPos="224.30" arrivalSpeed="12.06" duration="272.00" routeLength="2833.68" waitingTime="19.00" waitingCount="2" stopTime="0.00" timeLoss="44.61" rerouteNo="0" devices="vehroute_47 tripinfo_47 fcd_47" vType="DEFAULT_VEHTYPE" speedFactor="0.90" vaporized=""/>
    <tripinfo id="48" depart="1621.00" departLane="a153_0" departPos="5.10" departSpeed="0.00" departDelay="0.55" arrival="1916.00" arrivalLane="b53a_0" arrivalPos="257.19" arrivalSpeed="11.97" duration="295.00" routeLength="2250.86" waitingTime="73.00" waitingCount="3" stopTime="0.00" timeLoss="106.67" rerouteNo="0" devices="vehroute_48 tripinfo_48 fcd_48" vType="DEFAULT_VEHTYPE" speedFactor="0.88" vaporized=""/>
    <tripinfo id="53" depart="1784.00" departLane="a43[1]_0" departPos="5.10" departSpeed="0.00" departDelay="0.37" arrival="1932.00" arrivalLane="a204[1][1]_1" arrivalPos="436.51" arrivalSpeed="14.62" duration="148.00" routeLength="1052.53" waitingTime="52.00" waitingCount="3" stopTime="0.00" timeLoss="78.71" rerouteNo="0" devices="vehroute_53 tripinfo_53 fcd_53" vType="DEFAULT_VEHTYPE" speedFactor="1.10" vaporized=""/>
    <tripinfo id="54" depart="1798.00" departLane="a43[1]_0" departPos="5.10" departSpeed="0.00" departDelay="0.40" arrival="1933.00" arrivalLane="a204[1][1]_0" arrivalPos="436.51" arrivalSpeed="12.73" duration="135.00" routeLength="1052.53" waitingTime="41.00" waitingCount="2" stopTime="0.00" timeLoss="59.28" rerouteNo="0" devices="vehroute_54 tripinfo_54 fcd_54" vType="DEFAULT_VEHTYPE" speedFactor="1.00" vaporized=""/>
    <tripinfo id="50" depart="1664.00" departLane="a153_0" departPos="5.10" departSpeed="0.00" departDelay="0.99" arrival="2029.00" arrivalLane="b53a_0" arrivalPos="257.19" arrivalSpeed="11.18" duration="365.00" routeLength="2243.41" waitingTime="132.00" waitingCount="4" stopTime="0.00" timeLoss="171.91" rerouteNo="0" devices="vehroute_50 tripinfo_50 fcd_50" vType="DEFAULT_VEHTYPE" speedFactor="0.85" vaporized=""/>
    <tripinfo id="56" depart="1892.00" departLane="a203[1]b_0" departPos="0.20" departSpeed="0.00" departDelay="0.18" arrival="2049.00" arrivalLane="a204[1][1]_0" arrivalPos="436.51" arrivalSpeed="11.19" duration="157.00" routeLength="1626.02" waitingTime="1.00" waitingCount="1" stopTime="0.00" timeLoss="25.03" rerouteNo="0" devices="vehroute_56 tripinfo_56 fcd_56" vType="DEFAULT_VEHTYPE" speedFactor="0.90" vaporized=""/>
    <tripinfo id="52" depart="1745.00" departLane="a134_0" departPos="5.10" departSpeed="0.00" departDelay="0.43" arrival="2086.00" arrivalLane="b4[1][1][1]_0" arrivalPos="171.54" arrivalSpeed="13.92" duration="341.00" routeLength="2638.16" waitingTime="119.00" waitingCount="3" stopTime="0.00" timeLoss="152.12" rerouteNo="0" devices="vehroute_52 tripinfo_52 fcd_52" vType="DEFAULT_VEHTYPE" speedFactor="1.02" vaporized=""/>
    <tripinfo id="55" depart="1831.00" departLane="a203[0]_0" departPos="5.10" departSpeed="0.00" departDelay="0.11" arrival="2114.00" arrivalLane="b2[1][1][1]b_0" arrivalPos="325.74" arrivalSpeed="13.71" duration="283.00" routeLength="2513.32" waitingTime="65.00" waitingCount="4" stopTime="0.00" timeLoss="99.33" rerouteNo="0" devices="vehroute_55 tripinfo_55 fcd_55" vType="DEFAULT_VEHTYPE" speedFactor="1.00" vaporized=""/>
    <tripinfo id="59" depart="2096.00" departLane="a203[1]b_0" departPos="0.20" departSpeed="0.00" departDelay="0.27" arrival="2255.00" arrivalLane="a204[1][1]_0" arrivalPos="436.51" arrivalSpeed="13.40" duration="159.00" routeLength="1626.02" waitingTime="8.00" waitingCount="3" stopTime="0.00" timeLoss="36.59" rerouteNo="0" devices="vehroute_59 tripinfo_59 fcd_59" vType="DEFAULT_VEHTYPE" speedFactor="0.97" vaporized=""/>
    <tripinfo id="58" depart="2032.00" departLane="a78[0]_0" departPos="5.10" departSpeed="0.00" departDelay="0.01" arrival="2261.00" arrivalLane="b53a_0" arrivalPos="257.19" arrivalSpeed="13.25" duration="229.00" routeLength="1975.46" waitingTime="65.00" waitingCount="1" stopTime="0.00" timeLoss="87.10" rerouteNo="0" devices="vehroute_58 tripinfo_58 fcd_58" vType="DEFAULT_VEHTYPE" speedFactor="1.02" vaporized=""/>
    <tripinfo id="57" depart="1979.00" departLane="a195_0" departPos="5.10" departSpeed="0.00" departDelay="0.38" arrival="2262.00" arrivalLane="b2[1][1][1]b_0" arrivalPos="325.74" arrivalSpeed="15.36" duration="283.00" routeLength="2441.66" waitingTime="95.00" waitingCount="2" stopTime="0.00" timeLoss="126.58" rerouteNo="0" devices="vehroute_57 tripinfo_57 fcd_57" vType="DEFAULT_VEHTYPE" speedFactor="1.14" vaporized=""/>
    <tripinfo id="62" depart="2229.00" departLane="a43[1]_0" departPos="5.10" departSpeed="0.00" departDelay="0.79" arrival="2369.00" arrivalLane="a204[1][1]_0" arrivalPos="436.51" arrivalSpeed="13.24" duration="140.00" routeLength="1052.53" waitingTime="44.00" waitingCount="2" stopTime="0.00" timeLoss="65.11" rerouteNo="0" devices="vehroute_62 tripinfo_62 fcd_62" vType="DEFAULT_VEHTYPE" speedFactor="1.02" vaporized=""/>
    <tripinfo id="60" depart="2211.00" departLane="a203[0]_0" departPos="5.10" departSpeed="0.00" departDelay="0.31" arrival="2460.00" arrivalLane="a20001+87[1][0]_0" arrivalPos="29.44" arrivalSpeed="14.99" duration="249.00" routeLength="2470.06" waitingTime="61.00" waitingCount="1" stopTime="0.00" timeLoss="81.78" rerouteNo="0" devices="vehroute_60 tripinfo_60 fcd_60" vType="DEFAULT_VEHTYPE" speedFactor="1.08" vaporized=""/>
    <tripinfo id="63" depart="2231.00" departLane="a203[0]_0" departPos="5.10" departSpeed="0.00" departDelay="0.81" arrival="2468.00" arrivalLane="a20001+87[1][0]_0" arrivalPos="29.44" arrivalSpeed="12.67" duration="237.00" routeLength="2470.06" waitingTime="25.00" waitingCount="2" stopTime="0.00" timeLoss="54.22" rerouteNo="0" devices="vehroute_63 tripinfo_63 fcd_63" vType="DEFAULT_VEHTYPE" speedFactor="0.99" vaporized=""/>
    <tripinfo id="69" depart="2361.00" departLane="a43[1]_0" departPos="5.10" departSpeed="0.00" departDelay="0.39" arrival="2475.00" arrivalLane="a204[1][1]_0" arrivalPos="436.51" arrivalSpeed="13.92" duration="114.00" routeLength="1052.53" waitingTime="23.00" waitingCount="1" stopTime="0.00" timeLoss="39.75" rerouteNo="0" devices="vehroute_69 tripinfo_69 fcd_69" vType="DEFAULT_VEHTYPE" speedFactor="1.02" vaporized=""/>
    <tripinfo id="61" depart="2225.00" departLane="a195_0" departPos="5.10" departSpeed="0.00" departDelay="0.01" arrival="2501.00" arrivalLane="b2[1][1][1]b_0" arrivalPos="325.74" arrivalSpeed="14.88" duration="276.00" routeLength="2441.66" waitingTime="90.00" waitingCount="2" stopTime="0.00" timeLoss="116.15" rerouteNo="0" devices="vehroute_61 tripinfo_61 fcd_61" vType="DEFAULT_VEHTYPE" speedFactor="1.12" vaporized=""/>
    <tripinfo id="65" depart="2280.00" departLane="a195_0" departPos="5.10" departSpeed="0.00" departDelay="0.52" arrival="2546.00" arrivalLane="b2[1][1][1]b_0" arrivalPos="325.74" arrivalSpeed="11.26" duration="266.00" routeLength="2441.66" waitingTime="34.00" waitingCount="2" stopTime="0.00" timeLoss="63.41" rerouteNo="0" devices="vehroute_65 tripinfo_65 fcd_65" vType="DEFAULT_VEHTYPE" speedFactor="0.88" vaporized=""/>
    <tripinfo id="70" depart="2372.00" departLane="a195_0" departPos="5.10" departSpeed="0.00" departDelay="0.71" arrival="2548.00" arrivalLane="b53_0" arrivalPos="63.75" arrivalSpeed="14.10" duration="176.00" routeLength="2121.87" waitingTime="0.00" waitingCount="0" stopTime="0.00" timeLoss="22.33" rerouteNo="0" devices="vehroute_70 tripinfo_70 fcd_70" vType="DEFAULT_VEHTYPE" speedFactor="1.02" vaporized=""/>