<?xml version="1.0" encoding="UTF-8"?>

<!-- generated on 2025-03-21 17:16:50 by Eclipse SUMO sumo Version 1.21.0
<sumoConfiguration xmlns:xsi="http://www.w3.org/2001/XMLSchema-instance" xsi:noNamespaceSchemaLocation="http://sumo.dlr.de/xsd/sumoConfiguration.xsd">

    <input>
        <net-file value="${STATICPATH}/joined_lanes.net.xml"/>
        <route-files value="${SIMULATIONPATH}/generatedRoutes.rou.xml"/>
        <additional-files value="${STATICPATH}/detectors.add.xml,${STATICPATH}/joined_vtypes.add.xml,${STATICPATH}/joined_tls.add.xml"/>
    </input>

    <output>
        <fcd-output value="${SIMULATIONPATH}/fcd.xml"/>
        <queue-output value="${SIMULATIONPATH}/queue.xml"/>
        <summary-output value="${SIMULATIONPATH}/summary.xml"/>
        <tripinfo-output value="${SIMULATIONPATH}/tripinfos.xml"/>
        <vehroute-output value="${SIMULATIONPATH}/vehroute.xml"/>
        <save-state.prefix value="configs\state"/>
    </output>

    <processing>
        <ignore-junction-blocker value="1"/>
        <ignore-route-errors value="true"/>
        <time-to-teleport value="-1"/>
    </processing>

    <report>
        <log value="C:/Users/fabio/Desktop/sumo_log.txt"/>
        <no-step-log value="true"/>
    </report>

    <emissions>
        <phemlight-path value="configs\./PHEMlight/"/>
    </emissions>

    <traci_server>
        <remote-port value="60014"/>
    </traci_server>

</sumoConfiguration>
-->

<routes xmlns:xsi="http://www.w3.org/2001/XMLSchema-instance" xsi:noNamespaceSchemaLocation="http://sumo.dlr.de/xsd/routes_file.xsd">
    <vehicle id="0" depart="129.00" arrival="361.00">
        <route edges="a203[0] b12 b50[0] b50[1] b50[1]a a181 a18 a17 a71 b2[0] b2[1][0] b2[1][1][0] b2[1][1][1] b2[1][1][1]b"/>
    </vehicle>

    <vehicle id="3" depart="173.00" arrival="411.00">
        <route edges="a195 a159 a42 a39 a35 a38 a15 a24 a22 a59 a53cd a53[0] a53[1][0] a79 a68 a11 b2[0] b2[1][0] b2[1][1][0] b2[1][1][1] b2[1][1][1]b"/>
    </vehicle>

    <vehicle id="2" depart="154.00" arrival="418.00">
        <route edges="a195 a159 a42 a39 a35 a38 a15 a24 a22 a59 a53cd a53[0] a53[1][0] a79 a68 a11 b2[0] b2[1][0] b2[1][1][0] b2[1][1][1] b2[1][1][1]b"/>
    </vehicle>

    <vehicle id="1" depart="137.00" arrival="419.00">
        <route edges="a195 a61 a58[0] a58[1] a66 a119 a116 a46 a201 a201c a204a[0] a124 b12 b53"/>
    </vehicle>

    <vehicle id="4" depart="233.00" arrival="422.00">
        <route edges="a195 a61 a58[0] a58[1] a66 a119 a116 a46 a201 a201c a204a[0] a124 b12 b53"/>
    </vehicle>

    <vehicle id="6" depart="276.00" arrival="495.00">
        <route edges="a203[0] b12 b50[0] b50[1] b50[1]a a181 a18 a17 a71 a67 a80 a127 a77[1][0] a77ab a77bc a77cd a53cd a53[0] a78[1][1] a189[0] a189[1][0]+20000 a189[1][1] a188 a87[0] a20001+87[1][0]"/>
    </vehicle>

    <vehicle id="13" depart="538.00" arrival="612.00">
        <route edges="a43[1] a201 a201c a204a[0] a204b[0] a204[1][0] a204[1][1]"/>
    </vehicle>

    <vehicle id="8" depart="380.00" arrival="632.00">
        <route edges="a203[0] b12 b50[0] b50[1] b50[1]a a181 a18 a17 a71 b2[0] b2[1][0] b2[1][1][0] b2[1][1][1] b2[1][1][1]b"/>
    </vehicle>

    <vehicle id="10" depart="458.00" arrival="657.00">
        <route edges="a78[0] a56a a56b a77bc a77cd a53cd a53[0] a53[1][0] a79 a68 a11 b38[0] b38[0]a b38[1][0] b96 b49[1] b55 b53 b53a"/>
    </vehicle>

    <vehicle id="5" depart="269.00" arrival="659.00">
        <route edges="a36 a40 a153 a87[0] a20001+87[1][0] a87[1][1] am90 am91 a88 a187 a191 a17 a71 b38[0] b38[0]a b37 b26 b26.-170 b17[0] b17[1]"/>
    </vehicle>

    <vehicle id="11" depart="480.00" arrival="666.00">
        <route edges="a195 a61 a58[0] a58[1] a66 a119 a116 a46 a201 a201c a204a[0] a124 b12 b53"/>
    </vehicle>

    <vehicle id="7" depart="368.00" arrival="673.00">
        <route edges="a195 a159 a42 a39 a35 a38 a15 a24 a22 a59 a53cd a53[0] a53[1][0] a79 a68 a11 b2[0] b2[1][0] b2[1][1][0] b2[1][1][1] b2[1][1][1]b"/>
    </vehicle>

    <vehicle id="12" depart="482.00" arrival="740.00">
        <route edges="a203[0] b12 b50[0] b50[1] b50[1]a a181 a18 a17 a71 a67 a80 a127 a77[1][0] a77ab a77bc a77cd a53cd a53[0] a78[1][1] a189[0] a189[1][0]+20000 a189[1][1] a188 a87[0] a20001+87[1][0]"/>
    </vehicle>

    <vehicle id="9" depart="383.00" arrival="760.00">
        <route edges="a203[0] b12 b50[0] b50[1] b50[1]a a181 a18 a17 a71 b2[0] b2[1][0] b2[1][1][0] b2[1][1][1] b2[1][1][1]b"/>
    </vehicle>

    <vehicle id="14" depart="615.00" arrival="762.00">
        <route edges="a203[1]b a202 a34 a134 a134b a133 a31 a201 a201c a204a[0] a204b[0] a204[1][0] a204[1][1]"/>
    </vehicle>

    <vehicle id="21" depart="763.00" arrival="886.00">
        <route edges="a43[1] a201 a201c a204a[0] a204b[0] a204[1][0] a204[1][1]"/>
    </vehicle>

    <vehicle id="15" depart="626.00" arrival="893.00">
        <route edges="a153 a87[0] a20001+87[1][0] a87[1][1] am90 a171 a161 a122 a1b a1 a204a[0] a124 b12 b53 b53a"/>
    </vehicle>

    <vehicle id="16" depart="637.00" arrival="897.00">
        <route edges="a153 a87[0] a20001+87[1][0] a87[1][1] am90 a171 a161 a122 a1b a1 a204a[0] a124 b12 b53 b53a"/>
    </vehicle>

    <vehicle id="18" depart="683.00" arrival="914.00">
        <route edges="a195 a159 a42 a39 a35 a38 a15 a24 a22 a59 a53cd a53[0] a53[1][0] a79 a68 a11 b2[0] b2[1][0] b2[1][1][0] b2[1][1][1] b2[1][1][1]b"/>
    </vehicle>

    <vehicle id="25" depart="838.00" arrival="935.00">
        <route edges="a43[1] a201 a201c a204a[0] a204b[0] a204[1][0] a204[1][1]"/>
    </vehicle>

    <vehicle id="19" depart="691.00" arrival="971.00">
        <route edges="a203[0] b12 b50[0] b50[1] b50[1]a a181 a18 a17 a71 b2[0] b2[1][0] b2[1][1][0] b2[1][1][1] b2[1][1][1]b"/>
    </vehicle>

    <vehicle id="17" depart="640.00" arrival="985.00">
        <route edges="a203[0] b12 b50[0] b50[1] b50[1]a a181 a18 a17 a71 b2[0] b2[1][0] b2[1][1][0] b2[1][1][1] b2[1][1][1]b"/>
    </vehicle>

    <vehicle id="20" depart="716.00" arrival="1007.00">
        <route edges="a36 a40 a153 a87[0] a20001+87[1][0] a87[1][1] am90 am91 a88 a187 a191 a17 a71 b38[0] b38[0]a b37 b26 b26.-170 b17[0] b17[1]"/>
    </vehicle>

    <vehicle id="23" depart="818.00" arrival="1066.00">
        <route edges="a195 a61 a58[0] a58[1] a66 a119 a116 a46 a201 a201c a204a[0] a124 b12 b53"/>
    </vehicle>

    <vehicle id="24" depart="825.00" arrival="1077.00">
        <route edges="a195 a61 a58[0] a58[1] a66 a119 a116 a46 a201 a201c a204a[0] a124 b12 b53"/>
    </vehicle>

    <vehicle id="32" depart="1006.00" arrival="1092.00">
        <route edges="a43[1] a201 a201c a204a[0] a204b[0] a204[1][0] a204[1][1]"/>
    </vehicle>

    <vehicle id="22" depart="795.00" arrival="1105.00">
        <route edges="a203[0] b12 b50[0] b50[1] b50[1]a a181 a18 a17 a71 b2[0] b2[1][0] b2[1][1][0] b2[1][1][1] b2[1][1][1]b"/>
    </vehicle>

    <vehicle id="28" depart="912.00" arrival="1135.00">
        <route edges="a134 a134b a133 a31 a201 a201c a204a[0] a124 b12 b56[0] b56[1][0] b56[1][1] b5[1][0]+66 b5[1][1][1] b8 b10"/>
    </vehicle>

    <vehicle id="26" depart="877.00" arrival="1160.00">
        <route edges="a210 a43[0] a43[1] a201 a201c a204a[0] a124 b12 b56[0] b56[1][0] b56[1][1] b5[1][0]+66 b5[1][1][1] b8 b10"/>
    </vehicle>

    <vehicle id="33" depart="1071.00" arrival="1190.00">
        <route edges="a43[1] a201 a201c a204a[0] a204b[0] a204[1][0] a204[1][1]"/>
    </vehicle>

    <vehicle id="30" depart="959.00" arrival="1204.00">
        <route edges="a195 a61 a58[0] a58[1] a66 a119 a116 a46 a201 a201c a204a[0] a124 b12 b53"/>
    </vehicle>

    <vehicle id="29" depart="956.00" arrival="1213.00">
        <route edges="a195 a61 a58[0] a58[1] a66 a119 a116 a46 a201 a201c a204a[0] a124 b12 b53"/>
    </vehicle>

    <vehicle id="31" depart="958.00" arrival="1226.00">
        <route edges="a153 a87[0] a20001+87[1][0] a87[1][1] am90 a171 a161 a122 a1b a1 a204a[0] a124 b12 b53 b53a"/>
    </vehicle>

    <vehicle id="27" depart="895.00" arrival="1230.00">
        <route edges="a203[0] b12 b50[0] b50[1] b50[1]a a181 a18 a17 a71 b2[0] b2[1][0] b2[1][1][0] b2[1][1][1] b2[1][1][1]b"/>
    </vehicle>

    <vehicle id="34" depart="1165.00" arrival="1353.00">
        <route edges="a203[1]b a202 a34 a134 a134b a133 a31 a201 a201c a204a[0] a204b[0] a204[1][0] a204[1][1]"/>
    </vehicle>

    <vehicle id="37" depart="1338.00" arrival="1526.00">
        <route edges="a195 a61 a58[0] a58[1] a66 a119 a116 a46 a201 a201c a204a[0] a124 b12 b53"/>
    </vehicle>

    <vehicle id="35" depart="1276.00" arrival="1530.00">
        <route edges="a195 a61 a58[0] a58[1] a66 a119 a116 a46 a201 a201c a204a[0] a124 b12 b53"/>
    </vehicle>

    <vehicle id="36" depart="1278.00" arrival="1569.00">
        <route edges="a153 a87[0] a20001+87[1][0] a87[1][1] am90 am91 a88 a187 a191 a17 a71 b38[0] b38[0]a b38[1][0] b38[1][1] b38[1][1]a b56[1][0] b56[1][1] b5[1][0]+66 b5[1][1][1] b8 b3[1] b3[1]b"/>
    </vehicle>

    <vehicle id="44" depart="1484.00" arrival="1573.00">
        <route edges="a43[1] a201 a201c a204a[0] a204b[0] a204[1][0] a204[1][1]"/>
    </vehicle>

    <vehicle id="38" depart="1391.00" arrival="1654.00">
        <route edges="a195 a159 a42 a39 a35 a38 a15 a24 a22 a59 a53cd a53[0] a53[1][0] a79 a68 a11 b2[0] b2[1][0] b2[1][1][0] b2[1][1][1] b2[1][1][1]b"/>
    </vehicle>

    <vehicle id="40" depart="1394.00" arrival="1677.00">
        <route edges="a210 a43[0] a43[1] a201 a201c a204a[0] a124 b12 b56[0] b56[1][0] b56[1][1] b5[1][0]+66 b5[1][1][1] b8 b10"/>
    </vehicle>

    <vehicle id="43" depart="1458.00" arrival="1679.00">
        <route edges="a195 a61 a58[0] a58[1] a66 a119 a116 a46 a201 a201c a204a[0] a124 b12 b53"/>
    </vehicle>

    <vehicle id="42" depart="1413.00" arrival="1713.00">
        <route edges="a203[0] b12 b50[0] b50[1] b50[1]a a181 a18 a17 a71 b2[0] b2[1][0] b2[1][1][0] b2[1][1][1] b2[1][1][1]b"/>
    </vehicle>

    <vehicle id="49" depart="1623.00" arrival="1722.00">
        <route edges="a43[1] a201 a201c a204a[0] a204b[0] a204[1][0] a204[1][1]"/>
    </vehicle>

    <vehicle id="39" depart="1392.00" arrival="1726.00">
        <route edges="a203[0] b12 b50[0] b50[1] b50[1]a a181 a18 a17 a71 b2[0] b2[1][0] b2[1][1][0] b2[1][1][1] b2[1][1][1]b"/>
    </vehicle>

    <vehicle id="41" depart="1396.00" arrival="1731.00">
        <route edges="a203[0] b12 b50[0] b50[1] b50[1]a a181 a18 a17 a71 a67 a80 a127 a77[1][0] a77ab a77bc a77cd a53cd a53[0] a78[1][1] a189[0] a189[1][0]+20000 a189[1][1] a188 a87[0] a20001+87[1][0]"/>
    </vehicle>

    <vehicle id="45" depart="1507.00" arrival="1742.00">
        <route edges="a36 a40 a153 a87[0] a20001+87[1][0] a87[1][1] am90 am91 a88 a187 a191 a17 a71 b38[0] b38[0]a b37 b26 b26.-170 b17[0] b17[1]"/>
    </vehicle>

    <vehicle id="46" depart="1550.00" arrival="1798.00">
        <route edges="a78[0] a56a a56b a77bc a77cd a53cd a53[0] a53[1][0] a79 a68 a11 b38[0] b38[0]a b38[1][0] b96 b49[1] b55 b53 b53a"/>
    </vehicle>

    <vehicle id="51" depart="1734.00" arrival="1830.00">
        <route edges="a43[1] a201 a201c a204a[0] a204b[0] a204[1][0] a204[1][1]"/>
    </vehicle>

    <vehicle id="47" depart="1596.00" arrival="1868.00">
        <route edges="a210 a43[0] a43[1] a201 a201c a204a[0] a124 b12 b56[0] b56[1][0] b56[1][1] b5[1][0]+66 b5[1][1][1] b8 b10"/>
    </vehicle>

    <vehicle id="48" depart="1621.00" arrival="1916.00">
        <route edges="a153 a87[0] a20001+87[1][0] a87[1][1] am90 a171 a161 a122 a1b a1 a204a[0] a124 b12 b53 b53a"/>
    </vehicle>

    <vehicle id="53" depart="1784.00" arrival="1932.00">
        <route edges="a43[1] a201 a201c a204a[0] a204b[0] a204[1][0] a204[1][1]"/>
    </vehicle>

    <vehicle id="54" depart="1798.00" arrival="1933.00">
        <route edges="a43[1] a201 a201c a204a[0] a204b[0] a204[1][0] a204[1][1]"/>
    </vehicle>

    <vehicle id="50" depart="1664.00" arrival="2029.00">
        <route edges="a153 a87[0] a20001+87[1][0] a87[1][1] am90 a171 a161 a122 a1b a1 a204a[0] a124 b12 b53 b53a"/>
    </vehicle>

    <vehicle id="56" depart="1892.00" arrival="2049.00">
        <route edges="a203[1]b a202 a34 a134 a134b a133 a31 a201 a201c a204a[0] a204b[0] a204[1][0] a204[1][1]"/>
    </vehicle>

    <vehicle id="52" depart="1745.00" arrival="2086.00">
        <route edges="a134 a134b a133 a31 a201 a201c a204a[0] a124 b12 b56[0] b56[1][0] b56[1][1] b5[1][0]+66 b5[1][1][1] b8 b4[1][1][1]"/>
    </vehicle>

    <vehicle id="55" depart="1831.00" arrival="2114.00">
        <route edges="a203[0] b12 b50[0] b50[1] b50[1]a a181 a18 a17 a71 b2[0] b2[1][0] b2[1][1][0] b2[1][1][1] b2[1][1][1]b"/>
    </vehicle>

    <vehicle id="59" depart="2096.00" arrival="2255.00">
        <route edges="a203[1]b a202 a34 a134 a134b a133 a31 a201 a201c a204a[0] a204b[0] a204[1][0] a204[1][1]"/>
    </vehicle>

    <vehicle id="58" depart="2032.00" arrival="2261.00">
        <route edges="a78[0] a56a a56b a77bc a77cd a53cd a53[0] a53[1][0] a79 a68 a11 b38[0] b38[0]a b38[1][0] b96 b49[1] b55 b53 b53a"/>
    </vehicle>

    <vehicle id="57" depart="1979.00" arrival="2262.00">
        <route edges="a195 a159 a42 a39 a35 a38 a15 a24 a22 a59 a53cd a53[0] a53[1][0] a79 a68 a11 b2[0] b2[1][0] b2[1][1][0] b2[1][1][1] b2[1][1][1]b"/>
    </vehicle>

    <vehicle id="62" depart="2229.00" arrival="2369.00">
        <route edges="a43[1] a201 a201c a204a[0] a204b[0] a204[1][0] a204[1][1]"/>
    </vehicle>

    <vehicle id="60" depart="2211.00" arrival="2460.00">
        <route edges="a203[0] b12 b50[0] b50[1] b50[1]a a181 a18 a17 a71 a67 a80 a127 a77[1][0] a77ab a77bc a77cd a53cd a53[0] a78[1][1] a189[0] a189[1][0]+20000 a189[1][1] a188 a87[0] a20001+87[1][0]"/>
    </vehicle>

    <vehicle id="63" depart="2231.00" arrival="2468.00">
        <route edges="a203[0] b12 b50[0] b50[1] b50[1]a a181 a18 a17 a71 a67 a80 a127 a77[1][0] a77ab a77bc a77cd a53cd a53[0] a78[1][1] a189[0] a189[1][0]+20000 a189[1][1] a188 a87[0] a20001+87[1][0]"/>
    </vehicle>

    <vehicle id="69" depart="2361.00" arrival="2475.00">
        <route edges="a43[1] a201 a201c a204a[0] a204b[0] a204[1][0] a204[1][1]"/>
    </vehicle>

    <vehicle id="61" depart="2225.00" arrival="2501.00">
        <route edges="a195 a159 a42 a39 a35 a38 a15 a24 a22 a59 a53cd a53[0] a53[1][0] a79 a68 a11 b2[0] b2[1][0] b2[1][1][0] b2[1][1][1] b2[1][1][1]b"/>
    </vehicle>

    <vehicle id="65" depart="2280.00" arrival="2546.00">
        <route edges="a195 a159 a42 a39 a35 a38 a15 a24 a22 a59 a53cd a53[0] a53[1][0] a79 a68 a11 b2[0] b2[1][0] b2[1][1][0] b2[1][1][1] b2[1][1][1]b"/>
    </vehicle>

    <vehicle id="70" depart="2372.00" arrival="2548.00">
        <route edges="a195 a61 a58[0] a58[1] a66 a119 a116 a46 a201 a201c a204a[0] a124 b12 b53"/>
    </vehicle>

    <vehicle id="64" depart="2266.00" arrival="2584.00">
        <route edges="a203[0] b12 b50[0] b50[1] b50[1]a a181 a18 a17 a71 b2[0] b2[1][0] b2[1][1][0] b2[1][1][1] b2[1][1][1]b"/>
    </vehicle>

    <vehicle id="66" depart="2326.00" arrival="2587.00">
        <route edges="a203[0] b12 b50[0] b50[1] b50[1]a a181 a18 a17 a71 b2[0] b2[1][0] b2[1][1][0] b2[1][1][1] b2[1][1][1]b"/>
    </vehicle>

    <vehicle id="71" depart="2373.00" arrival="2615.00">
        <route edges="a153 a87[0] a20001+87[1][0] a87[1][1] am90 a171 a161 a122 a1b a1 a204a[0] a124 b12 b53 b53a"/>
    </vehicle>

    <vehicle id="73" depart="2490.00" arrival="2642.00">
        <route edges="a203[1]b a202 a34 a134 a134b a133 a31 a201 a201c a204a[0] a204b[0] a204[1][0] a204[1][1]"/>
    </vehicle>

    <vehicle id="67" depart="2347.00" arrival="2670.00">
        <route edges="a195 a159 a42 a39 a35 a38 a15 a24 a22 a59 a53cd a53[0] a53[1][0] a79 a68 a11 b2[0] b2[1][0] b2[1][1][0] b2[1][1][1] b2[1][1][1]b"/>
    </vehicle>

    <vehicle id="72" depart="2452.00" arrival="2707.00">
        <route edges="a203[0] b12 b50[0] b50[1] b50[1]a a181 a18 a17 a71 b2[0] b2[1][0] b2[1][1][0] b2[1][1][1] b2[1][1][1]b"/>
    </vehicle>

    <vehicle id="68" depart="2355.00" arrival="2709.00">
        <route edges="a203[0] b12 b50[0] b50[1] b50[1]a a181 a18 a17 a71 a67 a80 a127 a77[1][0] a77ab a77bc a77cd a53cd a53[0] a78[1][1] a189[0] a189[1][0]+20000 a189[1][1] a188 a87[0] a20001+87[1][0]"/>
    </vehicle>

    <vehicle id="75" depart="2687.00" arrival="2812.00">
        <route edges="a43[1] a201 a201c a204a[0] a204b[0] a204[1][0] a204[1][1]"/>
    </vehicle>

    <vehicle id="76" depart="2716.00" arrival="2843.00">
        <route edges="a203[1]b a202 a34 a134 a134b a133 a31 a201 a201c a204a[0] a204b[0] a204[1][0] a204[1][1]"/>
    </vehicle>

    <vehicle id="74" depart="2608.00" arrival="2886.00">
        <route edges="a195 a61 a58[0] a58[1] a66 a119 a116 a46 a201 a201c a204a[0] a124 b12 b53"/>
    </vehicle>

    <vehicle id="78" depart="2818.00" arrival="2965.00">
        <route edges="a203[1]b a202 a34 a134 a134b a133 a31 a201 a201c a204a[0] a204b[0] a204[1][0] a204[1][1]"/>
    </vehicle>

    <vehicle id="80" depart="2846.00" arrival="3057.00">
        <route edges="b39[1][1][1] b45 b2[0] b2[1][0] b24 b23 b17[0] b17[1] b8 b10"/>
    </vehicle>

    <vehicle id="79" depart="2822.00" arrival="3073.00">
        <route edges="a210 a43[0] a43[1] a201 a201c a204a[0] a124 b12 b56[0] b56[1][0] b56[1][1] b5[1][0]+66 b5[1][1][1] b8 b10"/>
    </vehicle>

    <vehicle id="81" depart="2852.00" arrival="3086.00">
        <route edges="a210 a43[0] a43[1] a201 a201c a204a[0] a124 b12 b56[0] b56[1][0] b56[1][1] b5[1][0]+66 b5[1][1][1] b8 b10"/>
    </vehicle>

    <vehicle id="77" depart="2813.00" arrival="3097.00">
        <route edges="a203[0] b12 b50[0] b50[1] b50[1]a a181 a18 a17 a71 b2[0] b2[1][0] b2[1][1][0] b2[1][1][1] b2[1][1][1]b"/>
    </vehicle>

    <vehicle id="84" depart="2919.00" arrival="3114.00">
        <route edges="a195 a159 a42 a39 a35 a38 a15 a24 a22 a59 a53cd a53[0] a53[1][0] a79 a68 a11 b2[0] b2[1][0] b2[1][1][0] b2[1][1][1] b2[1][1][1]b"/>
    </vehicle>

    <vehicle id="83" depart="2912.00" arrival="3118.00">
        <route edges="a203[1]b a202 a34 a134 a134b a133 a31 a201 a201c a204a[0] a204b[0] a204[1][0] a204[1][1]"/>
    </vehicle>

    <vehicle id="85" depart="2971.00" arrival="3154.00">
        <route edges="a195 a61 a58[0] a58[1] a66 a119 a116 a46 a201 a201c a204a[0] a124 b12 b53"/>
    </vehicle>

    <vehicle id="82" depart="2888.00" arrival="3246.00">
        <route edges="a134 a134b a133 a31 a201 a201c a204a[0] a124 b12 b56[0] b56[1][0] b56[1][1] b5[1][0]+66 b5[1][1][1] b8 b10"/>
    </vehicle>

    <vehicle id="86" depart="3004.00" arrival="3247.00">
        <route edges="a195 a159 a42 a39 a35 a38 a15 a24 a22 a59 a53cd a53[0] a53[1][0] a79 a68 a11 b2[0] b2[1][0] b2[1][1][0] b2[1][1][1] b2[1][1][1]b"/>
    </vehicle>

    <vehicle id="87" depart="3053.00" arrival="3287.00">
        <route edges="a195 a61 a58[0] a58[1] a66 a119 a116 a46 a201 a201c a204a[0] a124 b12 b53"/>
    </vehicle>

    <vehicle id="89" depart="3113.00" arrival="3381.00">
        <route edges="a195 a159 a42 a39 a35 a38 a15 a24 a22 a59 a53cd a53[0] a53[1][0] a79 a68 a11 b2[0] b2[1][0] b2[1][1][0] b2[1][1][1] b2[1][1][1]b"/>
    </vehicle>

    <vehicle id="88" depart="3095.00" arrival="3417.00">
        <route edges="a210 a43[0] a43[1] a201 a201c a204a[0] a124 b12 b56[0] b56[1][0] b56[1][1] b5[1][0]+66 b5[1][1][1] b8 b10"/>
    </vehicle>

    <vehicle id="90" depart="3177.00" arrival="3443.00">
        <route edges="a195 a61 a58[0] a58[1] a66 a119 a116 a46 a201 a201c a204a[0] a124 b12 b53"/>
    </vehicle>

    <vehicle id="91" depart="3202.00" arrival="3447.00">
        <route edges="a195 a61 a58[0] a58[1] a66 a119 a116 a46 a201 a201c a204a[0] a124 b12 b53"/>
    </vehicle>

    <vehicle id="93" depart="3393.00" arrival="3483.00">
        <route edges="a43[1] a201 a201c a204a[0] a204b[0] a204[1][0] a204[1][1]"/>
    </vehicle>

    <vehicle id="92" depart="3350.00" arrival="3536.00">
        <route edges="a203[1]b a202 a34 a134 a134b a133 a31 a201 a201c a204a[0] a204b[0] a204[1][0] a204[1][1]"/>
    </vehicle>

    <vehicle id="96" depart="3470.00" arrival="3584.00">
        <route edges="a43[1] a201 a201c a204a[0] a204b[0] a204[1][0] a204[1][1]"/>
    </vehicle>

    <vehicle id="95" depart="3443.00" arrival="3585.00">
        <route edges="a203[1]b a202 a34 a134 a134b a133 a31 a201 a201c a204a[0] a204b[0] a204[1][0] a204[1][1]"/>
    </vehicle>

    <vehicle id="94" depart="3395.00" arrival="3610.00">
        <route edges="a195 a159 a42 a39 a35 a38 a15 a24 a22 a59 a53cd a53[0] a53[1][0] a79 a68 a11 b2[0] b2[1][0] b2[1][1][0] b2[1][1][1] b2[1][1][1]b"/>
    </vehicle>

    <vehicle id="99" depart="3570.00" arrival="3734.00">
        <route edges="a203[1]b a202 a34 a134 a134b a133 a31 a201 a201c a204a[0] a204b[0] a204[1][0] a204[1][1]"/>
    </vehicle>

    <vehicle id="97" depart="3495.00" arrival="3746.00">
        <route edges="a195 a159 a42 a39 a35 a38 a15 a24 a22 a59 a53cd a53[0] a53[1][0] a79 a68 a11 b2[0] b2[1][0] b2[1][1][0] b2[1][1][1] b2[1][1][1]b"/>
    </vehicle>

    <vehicle id="98" depart="3558.00" arrival="3753.00">
        <route edges="a195 a61 a58[0] a58[1] a66 a119 a116 a46 a201 a201c a204a[0] a124 b12 b53"/>
    </vehicle>

</routes>
