<?xml version="1.0" encoding="UTF-8"?>

<!-- generated on 2025-03-21 17:37:27 by Eclipse SUMO sumo Version 1.21.0
<sumoConfiguration xmlns:xsi="http://www.w3.org/2001/XMLSchema-instance" xsi:noNamespaceSchemaLocation="http://sumo.dlr.de/xsd/sumoConfiguration.xsd">

    <input>
        <net-file value="${STATICPATH}/joined_lanes.net.xml"/>
        <route-files value="${SIMULATIONPATH}/generatedRoutes.rou.xml"/>
        <additional-files value="${STATICPATH}/detectors.add.xml,${STATICPATH}/joined_vtypes.add.xml,${STATICPATH}/joined_tls.add.xml"/>
    </input>

    <output>
        <fcd-output value="${SIMULATIONPATH}/fcd.xml"/>
        <queue-output value="${SIMULATIONPATH}/queue.xml"/>
        <summary-output value="${SIMULATIONPATH}/summary.xml"/>
        <tripinfo-output value="${SIMULATIONPATH}/tripinfos.xml"/>
        <vehroute-output value="${SIMULATIONPATH}/vehroute.xml"/>
        <save-state.prefix value="configs\state"/>
    </output>

    <processing>
        <ignore-junction-blocker value="1"/>
        <ignore-route-errors value="true"/>
        <time-to-teleport value="-1"/>
    </processing>

    <report>
        <log value="C:/Users/fabio/Desktop/sumo_log.txt"/>
        <no-step-log value="true"/>
    </report>

    <emissions>
        <phemlight-path value="configs\./PHEMlight/"/>
    </emissions>

    <traci_server>
        <remote-port value="60114"/>
    </traci_server>

</sumoConfiguration>
-->

<tripinfos xmlns:xsi="http://www.w3.org/2001/XMLSchema-instance" xsi:noNamespaceSchemaLocation="http://sumo.dlr.de/xsd/tripinfo_file.xsd">
    <tripinfo id="3" depart="93.00" departLane="a210_0" departPos="5.10" departSpeed="0.00" departDelay="0.08" arrival="403.00" arrivalLane="b4[1][1][1]_0" arrivalPos="171.54" arrivalSpeed="14.72" duration="310.00" routeLength="2764.18" waitingTime="81.00" waitingCount="4" stopTime="0.00" timeLoss="124.43" rerouteNo="0" devices="vehroute_3 tripinfo_3 fcd_3" vType="DEFAULT_VEHTYPE" speedFactor="1.08" vaporized=""/>
    <tripinfo id="0" depart="40.00" departLane="a210_0" departPos="5.10" departSpeed="0.00" departDelay="0.29" arrival="405.00" arrivalLane="b4[1][1][1]_0" arrivalPos="171.54" arrivalSpeed="14.32" duration="365.00" routeLength="2764.18" waitingTime="132.00" waitingCount="5" stopTime="0.00" timeLoss="175.72" rerouteNo="0" devices="vehroute_0 tripinfo_0 fcd_0" vType="DEFAULT_VEHTYPE" speedFactor="1.06" vaporized=""/>
    <tripinfo id="2" depart="70.00" departLane="a210_0" departPos="5.10" departSpeed="0.00" departDelay="0.91" arrival="407.00" arrivalLane="b4[1][1][1]_0" arrivalPos="171.54" arrivalSpeed="13.08" duration="337.00" routeLength="2767.14" waitingTime="102.00" waitingCount="4" stopTime="0.00" timeLoss="138.71" rerouteNo="0" devices="vehroute_2 tripinfo_2 fcd_2" vType="DEFAULT_VEHTYPE" speedFactor="1.01" vaporized=""/>
    <tripinfo id="1" depart="44.00" departLane="a210_0" departPos="5.10" departSpeed="0.00" departDelay="0.37" arrival="410.00" arrivalLane="b4[1][1][1]_0" arrivalPos="171.54" arrivalSpeed="12.83" duration="366.00" routeLength="2767.14" waitingTime="115.00" waitingCount="4" stopTime="0.00" timeLoss="152.67" rerouteNo="0" devices="vehroute_1 tripinfo_1 fcd_1" vType="DEFAULT_VEHTYPE" speedFactor="0.94" vaporized=""/>
    <tripinfo id="6" depart="221.00" departLane="a210_0" departPos="5.10" departSpeed="0.00" departDelay="0.14" arrival="559.00" arrivalLane="b4[1][1][1]_0" arrivalPos="171.54" arrivalSpeed="14.08" duration="338.00" routeLength="2767.14" waitingTime="109.00" waitingCount="4" stopTime="0.00" timeLoss="146.55" rerouteNo="0" devices="vehroute_6 tripinfo_6 fcd_6" vType="DEFAULT_VEHTYPE" speedFactor="1.05" vaporized=""/>
    <tripinfo id="4" depart="209.00" departLane="a210_0" departPos="5.10" departSpeed="0.00" departDelay="0.99" arrival="561.00" arrivalLane="b4[1][1][1]_0" arrivalPos="171.54" arrivalSpeed="13.17" duration="352.00" routeLength="2767.14" waitingTime="112.00" waitingCount="4" stopTime="0.00" timeLoss="157.81" rerouteNo="0" devices="vehroute_4 tripinfo_4 fcd_4" vType="DEFAULT_VEHTYPE" speedFactor="1.03" vaporized=""/>
    <tripinfo id="8" depart="246.00" departLane="a210_0" departPos="5.10" departSpeed="0.00" departDelay="0.58" arrival="564.00" arrivalLane="b4[1][1][1]_0" arrivalPos="171.54" arrivalSpeed="12.40" duration="318.00" routeLength="2767.14" waitingTime="72.00" waitingCount="2" stopTime="0.00" timeLoss="104.70" rerouteNo="0" devices="vehroute_8 tripinfo_8 fcd_8" vType="DEFAULT_VEHTYPE" speedFactor="0.94" vaporized=""/>
    <tripinfo id="7" depart="225.00" departLane="a210_0" departPos="5.10" departSpeed="0.00" departDelay="0.75" arrival="568.00" arrivalLane="b4[1][1][1]_0" arrivalPos="171.54" arrivalSpeed="11.08" duration="343.00" routeLength="2764.18" waitingTime="81.00" waitingCount="4" stopTime="0.00" timeLoss="117.18" rerouteNo="0" devices="vehroute_7 tripinfo_7 fcd_7" vType="DEFAULT_VEHTYPE" speedFactor="0.89" vaporized=""/>
    <tripinfo id="9" depart="292.00" departLane="a210_0" departPos="5.10" departSpeed="0.00" departDelay="0.69" arrival="571.00" arrivalLane="b4[1][1][1]_0" arrivalPos="171.54" arrivalSpeed="11.06" duration="279.00" routeLength="2764.18" waitingTime="18.00" waitingCount="2" stopTime="0.00" timeLoss="45.36" rerouteNo="0" devices="vehroute_9 tripinfo_9 fcd_9" vType="DEFAULT_VEHTYPE" speedFactor="0.86" vaporized=""/>
    <tripinfo id="5" depart="212.00" departLane="a210_0" departPos="5.10" departSpeed="0.00" departDelay="2.61" arrival="574.00" arrivalLane="b4[1][1][1]_0" arrivalPos="171.54" arrivalSpeed="11.16" duration="362.00" routeLength="2764.18" waitingTime="81.00" waitingCount="3" stopTime="0.00" timeLoss="121.22" rerouteNo="0" devices="vehroute_5 tripinfo_5 fcd_5" vType="DEFAULT_VEHTYPE" speedFactor="0.83" vaporized=""/>
    <tripinfo id="10" depart="354.00" departLane="a210_0" departPos="5.10" departSpeed="0.00" departDelay="0.90" arrival="711.00" arrivalLane="b4[1][1][1]_0" arrivalPos="171.54" arrivalSpeed="14.14" duration="357.00" routeLength="2767.14" waitingTime="127.00" waitingCount="5" stopTime="0.00" timeLoss="173.51" rerouteNo="0" devices="vehroute_10 tripinfo_10 fcd_10" vType="DEFAULT_VEHTYPE" speedFactor="1.09" vaporized=""/>
    <tripinfo id="13" depart="396.00" departLane="a210_0" departPos="5.10" departSpeed="0.00" departDelay="0.95" arrival="713.00" arrivalLane="b4[1][1][1]_0" arrivalPos="171.54" arrivalSpeed="14.33" duration="317.00" routeLength="2764.18" waitingTime="93.00" waitingCount="4" stopTime="0.00" timeLoss="138.60" rerouteNo="0" devices="vehroute_13 tripinfo_13 fcd_13" vType="DEFAULT_VEHTYPE" speedFactor="1.12" vaporized=""/>
    <tripinfo id="12" depart="381.00" departLane="a210_0" departPos="5.10" departSpeed="0.00" departDelay="0.61" arrival="716.00" arrivalLane="b4[1][1][1]_0" arrivalPos="171.54" arrivalSpeed="14.45" duration="335.00" routeLength="2764.18" waitingTime="106.00" waitingCount="4" stopTime="0.00" timeLoss="143.31" rerouteNo="0" devices="vehroute_12 tripinfo_12 fcd_12" vType="DEFAULT_VEHTYPE" speedFactor="1.05" vaporized=""/>
    <tripinfo id="11" depart="364.00" departLane="a210_0" departPos="5.10" departSpeed="0.00" departDelay="0.24" arrival="718.00" arrivalLane="b4[1][1][1]_0" arrivalPos="171.54" arrivalSpeed="13.30" duration="354.00" routeLength="2767.14" waitingTime="119.00" waitingCount="4" stopTime="0.00" timeLoss="158.65" rerouteNo="0" devices="vehroute_11 tripinfo_11 fcd_11" vType="DEFAULT_VEHTYPE" speedFactor="1.03" vaporized=""/>
    <tripinfo id="19" depart="494.00" departLane="a210_0" departPos="5.10" departSpeed="0.00" departDelay="0.41" arrival="720.00" arrivalLane="b4[1][1][1]_0" arrivalPos="171.54" arrivalSpeed="16.01" duration="226.00" routeLength="2767.14" waitingTime="28.00" waitingCount="1" stopTime="0.00" timeLoss="52.47" rerouteNo="0" devices="vehroute_19 tripinfo_19 fcd_19" vType="DEFAULT_VEHTYPE" speedFactor="1.16" vaporized=""/>
    <tripinfo id="14" depart="419.00" departLane="a210_0" departPos="5.10" departSpeed="0.00" departDelay="0.08" arrival="723.00" arrivalLane="b4[1][1][1]_0" arrivalPos="171.54" arrivalSpeed="13.53" duration="304.00" routeLength="2767.14" waitingTime="64.00" waitingCount="4" stopTime="0.00" timeLoss="101.49" rerouteNo="0" devices="vehroute_14 tripinfo_14 fcd_14" vType="DEFAULT_VEHTYPE" speedFactor="0.99" vaporized=""/>
    <tripinfo id="15" depart="437.00" departLane="a210_0" departPos="5.10" departSpeed="0.00" departDelay="0.01" arrival="726.00" arrivalLane="b4[1][1][1]_0" arrivalPos="171.54" arrivalSpeed="11.93" duration="289.00" routeLength="2764.18" waitingTime="40.00" waitingCount="2" stopTime="0.00" timeLoss="72.62" rerouteNo="0" devices="vehroute_15 tripinfo_15 fcd_15" vType="DEFAULT_VEHTYPE" speedFactor="0.93" vaporized=""/>
    <tripinfo id="17" depart="478.00" departLane="a210_0" departPos="5.10" departSpeed="0.00" departDelay="0.91" arrival="728.00" arrivalLane="b4[1][1][1]_0" arrivalPos="171.54" arrivalSpeed="12.26" duration="250.00" routeLength="2767.14" waitingTime="10.00" waitingCount="2" stopTime="0.00" timeLoss="36.86" rerouteNo="0" devices="vehroute_17 tripinfo_17 fcd_17" vType="DEFAULT_VEHTYPE" speedFactor="0.94" vaporized=""/>
    <tripinfo id="18" depart="487.00" departLane="a210_0" departPos="5.10" departSpeed="0.00" departDelay="0.40" arrival="730.00" arrivalLane="b4[1][1][1]_0" arrivalPos="171.54" arrivalSpeed="12.13" duration="243.00" routeLength="2764.18" waitingTime="5.00" waitingCount="1" stopTime="0.00" timeLoss="29.01" rerouteNo="0" devices="vehroute_18 tripinfo_18 fcd_18" vType="DEFAULT_VEHTYPE" speedFactor="0.94" vaporized=""/>
    <tripinfo id="16" depart="471.00" departLane="a210_0" departPos="5.10" departSpeed="0.00" departDelay="0.44" arrival="733.00" arrivalLane="b4[1][1][1]_0" arrivalPos="171.54" arrivalSpeed="11.87" duration="262.00" routeLength="2767.14" waitingTime="9.00" waitingCount="1" stopTime="0.00" timeLoss="33.99" rerouteNo="0" devices="vehroute_16 tripinfo_16 fcd_16" vType="DEFAULT_VEHTYPE" speedFactor="0.88" vaporized=""/>
    <tripinfo id="20" depart="513.00" departLane="a210_0" departPos="5.10" departSpeed="0.00" departDelay="0.90" arrival="871.00" arrivalLane="b4[1][1][1]_0" arrivalPos="171.54" arrivalSpeed="13.98" duration="358.00" routeLength="2764.18" waitingTime="127.00" waitingCount="4" stopTime="0.00" timeLoss="161.47" rerouteNo="0" devices="vehroute_20 tripinfo_20 fcd_20" vType="DEFAULT_VEHTYPE" speedFactor="1.02" vaporized=""/>
    <tripinfo id="21" depart="527.00" departLane="a210_0" departPos="5.10" departSpeed="0.00" departDelay="0.05" arrival="874.00" arrivalLane="b4[1][1][1]_0" arrivalPos="171.54" arrivalSpeed="13.84" duration="347.00" routeLength="2767.14" waitingTime="111.00" waitingCount="4" stopTime="0.00" timeLoss="148.19" rerouteNo="0" devices="vehroute_21 tripinfo_21 fcd_21" vType="DEFAULT_VEHTYPE" speedFactor="1.01" vaporized=""/>
    <tripinfo id="22" depart="541.00" departLane="a210_0" departPos="5.10" departSpeed="0.00" departDelay="0.82" arrival="877.00" arrivalLane="b4[1][1][1]_0" arrivalPos="171.54" arrivalSpeed="12.73" duration="336.00" routeLength="2767.14" waitingTime="92.00" waitingCount="4" stopTime="0.00" timeLoss="129.79" rerouteNo="0" devices="vehroute_22 tripinfo_22 fcd_22" vType="DEFAULT_VEHTYPE" speedFactor="0.97" vaporized=""/>
    <tripinfo id="23" depart="548.00" departLane="a210_0" departPos="5.10" departSpeed="0.00" departDelay="0.71" arrival="880.00" arrivalLane="b4[1][1][1]_0" arrivalPos="171.54" arrivalSpeed="11.54" duration="332.00" routeLength="2764.18" waitingTime="74.00" waitingCount="2" stopTime="0.00" timeLoss="107.27" rerouteNo="0" devices="vehroute_23 tripinfo_23 fcd_23" vType="DEFAULT_VEHTYPE" speedFactor="0.89" vaporized=""/>
    <tripinfo id="25" depart="630.00" departLane="a210_0" departPos="5.10" departSpeed="0.00" departDelay="0.58" arrival="883.00" arrivalLane="b4[1][1][1]_0" arrivalPos="171.54" arrivalSpeed="11.44" duration="253.00" routeLength="2767.14" waitingTime="2.00" waitingCount="1" stopTime="0.00" timeLoss="23.46" rerouteNo="0" devices="vehroute_25 tripinfo_25 fcd_25" vType="DEFAULT_VEHTYPE" speedFactor="0.87" vaporized=""/>
    <tripinfo id="24" depart="625.00" departLane="a210_0" departPos="5.10" departSpeed="0.00" departDelay="0.31" arrival="888.00" arrivalLane="b4[1][1][1]_0" arrivalPos="171.54" arrivalSpeed="10.90" duration="263.00" routeLength="2767.14" waitingTime="0.00" waitingCount="0" stopTime="0.00" timeLoss="20.83" rerouteNo="0" devices="vehroute_24 tripinfo_24 fcd_24" vType="DEFAULT_VEHTYPE" speedFactor="0.83" vaporized=""/>
    <tripinfo id="28" depart="775.00" departLane="a210_0" departPos="5.10" departSpeed="0.00" departDelay="0.27" arrival="1020.00" arrivalLane="b4[1][1][1]_0" arrivalPos="171.54" arrivalSpeed="15.43" duration="245.00" routeLength="2764.18" waitingTime="40.00" waitingCount="2" stopTime="0.00" timeLoss="67.86" rerouteNo="0" devices="vehroute_28 tripinfo_28 fcd_28" vType="DEFAULT_VEHTYPE" speedFactor="1.13" vaporized=""/>
    <tripinfo id="26" depart="701.00" departLane="a210_0" departPos="5.10" departSpeed="0.00" departDelay="0.36" arrival="1025.00" arrivalLane="b4[1][1][1]_0" arrivalPos="171.54" arrivalSpeed="12.06" duration="324.00" routeLength="2767.14" waitingTime="72.00" waitingCount="3" stopTime="0.00" timeLoss="105.30" rerouteNo="0" devices="vehroute_26 tripinfo_26 fcd_26" vType="DEFAULT_VEHTYPE" speedFactor="0.92" vaporized=""/>
    <tripinfo id="29" depart="778.00" departLane="a210_0" departPos="5.10" departSpeed="0.00" departDelay="0.26" arrival="1026.00" arrivalLane="b4[1][1][1]_0" arrivalPos="171.54" arrivalSpeed="12.62" duration="248.00" routeLength="2764.18" waitingTime="9.00" waitingCount="1" stopTime="0.00" timeLoss="33.44" rerouteNo="0" devices="vehroute_29 tripinfo_29 fcd_29" vType="DEFAULT_VEHTYPE" speedFactor="0.93" vaporized=""/>
    <tripinfo id="27" depart="751.00" departLane="a210_0" departPos="5.10" departSpeed="0.00" departDelay="0.36" arrival="1028.00" arrivalLane="b4[1][1][1]_0" arrivalPos="171.54" arrivalSpeed="12.52" duration="277.00" routeLength="2767.14" waitingTime="27.00" waitingCount="3" stopTime="0.00" timeLoss="66.08" rerouteNo="0" devices="vehroute_27 tripinfo_27 fcd_27" vType="DEFAULT_VEHTYPE" speedFactor="0.95" vaporized=""/>
    <tripinfo id="30" depart="862.00" departLane="a210_0" departPos="5.10" departSpeed="0.00" departDelay="0.95" arrival="1176.00" arrivalLane="b4[1][1][1]_0" arrivalPos="171.54" arrivalSpeed="15.32" duration="314.00" routeLength="2767.14" waitingTime="109.00" waitingCount="3" stopTime="0.00" timeLoss="144.39" rerouteNo="0" devices="vehroute_30 tripinfo_30 fcd_30" vType="DEFAULT_VEHTYPE" speedFactor="1.18" vaporized=""/>
    <tripinfo id="31" depart="869.00" departLane="a210_0" departPos="5.10" departSpeed="0.00" departDelay="0.67" arrival="1178.00" arrivalLane="b4[1][1][1]_0" arrivalPos="171.54" arrivalSpeed="15.77" duration="309.00" routeLength="2764.18" waitingTime="102.00" waitingCount="3" stopTime="0.00" timeLoss="135.61" rerouteNo="0" devices="vehroute_31 tripinfo_31 fcd_31" vType="DEFAULT_VEHTYPE" speedFactor="1.15" vaporized=""/>
    <tripinfo id="32" depart="936.00" departLane="a210_0" departPos="5.10" departSpeed="0.00" departDelay="0.67" arrival="1181.00" arrivalLane="b4[1][1][1]_0" arrivalPos="171.54" arrivalSpeed="12.93" duration="245.00" routeLength="2767.14" waitingTime="18.00" waitingCount="3" stopTime="0.00" timeLoss="45.98" rerouteNo="0" devices="vehroute_32 tripinfo_32 fcd_32" vType="DEFAULT_VEHTYPE" speedFactor="1.01" vaporized=""/>
    <tripinfo id="33" depart="1092.00" departLane="a210_0" departPos="5.10" departSpeed="0.00" departDelay="0.21" arrival="1329.00" arrivalLane="b4[1][1][1]_0" arrivalPos="171.54" arrivalSpeed="15.34" duration="237.00" routeLength="2767.14" waitingTime="38.00" waitingCount="2" stopTime="0.00" timeLoss="65.86" rerouteNo="0" devices="vehroute_33 tripinfo_33 fcd_33" vType="DEFAULT_VEHTYPE" speedFactor="1.17" vaporized=""/>
    <tripinfo id="34" depart="1097.00" departLane="a210_0" departPos="5.10" departSpeed="0.00" departDelay="0.16" arrival="1334.00" arrivalLane="b4[1][1][1]_0" arrivalPos="171.54" arrivalSpeed="13.78" duration="237.00" routeLength="2767.14" waitingTime="16.00" waitingCount="1" stopTime="0.00" timeLoss="34.88" rerouteNo="0" devices="vehroute_34 tripinfo_34 fcd_34" vType="DEFAULT_VEHTYPE" speedFactor="0.99" vaporized=""/>
    <tripinfo id="35" depart="1103.00" departLane="a210_0" departPos="5.10" departSpeed="0.00" departDelay="0.49" arrival="1335.00" arrivalLane="b4[1][1][1]_0" arrivalPos="171.54" arrivalSpeed="13.14" duration="232.00" routeLength="2767.14" waitingTime="16.00" waitingCount="1" stopTime="0.00" timeLoss="35.70" rerouteNo="0" devices="vehroute_35 tripinfo_35 fcd_35" vType="DEFAULT_VEHTYPE" speedFactor="1.02" vaporized=""/>
    <tripinfo id="37" depart="1246.00" departLane="a210_0" departPos="5.10" departSpeed="0.00" departDelay="0.04" arrival="1485.00" arrivalLane="b4[1][1][1]_0" arrivalPos="171.54" arrivalSpeed="16.01" duration="239.00" routeLength="2767.14" waitingTime="35.00" waitingCount="3" stopTime="0.00" timeLoss="68.51" rerouteNo="0" devices="vehroute_37 tripinfo_37 fcd_37" vType="DEFAULT_VEHTYPE" speedFactor="1.18" vaporized=""/>
    <tripinfo id="36" depart="1123.00" departLane="a210_0" departPos="5.10" departSpeed="0.00" departDelay="0.46" arrival="1489.00" arrivalLane="b4[1][1][1]_0" arrivalPos="171.54" arrivalSpeed="12.49" duration="366.00" routeLength="2767.14" waitingTime="124.00" waitingCount="4" stopTime="0.00" timeLoss="159.93" rerouteNo="0" devices="vehroute_36 tripinfo_36 fcd_36" vType="DEFAULT_VEHTYPE" speedFactor="0.97" vaporized=""/>
    <tripinfo id="38" depart="1324.00" departLane="a210_0" departPos="5.10" departSpeed="0.00" departDelay="0.88" arrival="1641.00" arrivalLane="b4[1][1][1]_0" arrivalPos="171.54" arrivalSpeed="14.28" duration="317.00" routeLength="2767.14" waitingTime="94.00" waitingCount="3" stopTime="0.00" timeLoss="135.14" rerouteNo="0" devices="vehroute_38 tripinfo_38 fcd_38" vType="DEFAULT_VEHTYPE" speedFactor="1.10" vaporized=""/>
    <tripinfo id="40" depart="1371.00" departLane="a210_0" departPos="5.10" departSpeed="0.00" departDelay="0.76" arrival="1656.00" arrivalLane="b4[1][1][1]_0" arrivalPos="171.54" arrivalSpeed="13.89" duration="285.00" routeLength="2767.14" waitingTime="56.00" waitingCount="4" stopTime="0.00" timeLoss="89.87" rerouteNo="0" devices="vehroute_40 tripinfo_40 fcd_40" vType="DEFAULT_VEHTYPE" speedFactor="1.03" vaporized=""/>
    <tripinfo id="39" depart="1327.00" departLane="a210_0" departPos="5.10" departSpeed="0.00" departDelay="3.07" arrival="1663.00" arrivalLane="b4[1][1][1]_0" arrivalPos="171.54" arrivalSpeed="12.35" duration="336.00" routeLength="2764.18" waitingTime="82.00" waitingCount="2" stopTime="0.00" timeLoss="113.39" rerouteNo="0" devices="vehroute_39 tripinfo_39 fcd_39" vType="DEFAULT_VEHTYPE" speedFactor="0.90" vaporized=""/>
    <tripinfo id="42" depart="1451.00" departLane="a210_0" departPos="5.10" departSpeed="0.00" departDelay="0.27" arrival="1821.00" arrivalLane="b4[1][1][1]_0" arrivalPos="171.54" arrivalSpeed="15.11" duration="370.00" routeLength="2767.14" waitingTime="146.00" waitingCount="4" stopTime="0.00" timeLoss="186.20" rerouteNo="0" devices="vehroute_42 tripinfo_42 fcd_42" vType="DEFAULT_VEHTYPE" speedFactor="1.09" vaporized=""/>
    <tripinfo id="41" depart="1436.00" departLane="a210_0" departPos="5.10" departSpeed="0.00" departDelay="0.81" arrival="1825.00" arrivalLane="b4[1][1][1]_0" arrivalPos="171.54" arrivalSpeed="12.05" duration="389.00" routeLength="2764.18" waitingTime="138.00" waitingCount="5" stopTime="0.00" timeLoss="180.23" rerouteNo="0" devices="vehroute_41 tripinfo_41 fcd_41" vType="DEFAULT_VEHTYPE" speedFactor="0.96" vaporized=""/>
    <tripinfo id="45" depart="1534.00" departLane="a210_0" departPos="5.10" departSpeed="0.00" departDelay="0.10" arrival="1827.00" arrivalLane="b4[1][1][1]_0" arrivalPos="171.54" arrivalSpeed="14.21" duration="293.00" routeLength="2767.14" waitingTime="69.00" waitingCount="4" stopTime="0.00" timeLoss="108.54" rerouteNo="0" devices="vehroute_45 tripinfo_45 fcd_45" vType="DEFAULT_VEHTYPE" speedFactor="1.09" vaporized=""/>
    <tripinfo id="44" depart="1499.00" departLane="a210_0" departPos="5.10" departSpeed="0.00" departDelay="0.85" arrival="1829.00" arrivalLane="b4[1][1][1]_0" arrivalPos="171.54" arrivalSpeed="14.41" duration="330.00" routeLength="2767.14" waitingTime="84.00" waitingCount="5" stopTime="0.00" timeLoss="137.48" rerouteNo="0" devices="vehroute_44 tripinfo_44 fcd_44" vType="DEFAULT_VEHTYPE" speedFactor="1.04" vaporized=""/>
    <tripinfo id="46" depart="1557.00" departLane="a210_0" departPos="5.10" departSpeed="0.00" departDelay="0.01" arrival="1831.00" arrivalLane="b4[1][1][1]_0" arrivalPos="171.54" arrivalSpeed="12.84" duration="274.00" routeLength="2767.14" waitingTime="37.00" waitingCount="2" stopTime="0.00" timeLoss="73.01" rerouteNo="0" devices="vehroute_46 tripinfo_46 fcd_46" vType="DEFAULT_VEHTYPE" speedFactor="1.00" vaporized=""/>
    <tripinfo id="47" depart="1583.00" departLane="a210_0" departPos="5.10" departSpeed="0.00" departDelay="0.76" arrival="1835.00" arrivalLane="b4[1][1][1]_0" arrivalPos="171.54" arrivalSpeed="11.54" duration="252.00" routeLength="2767.14" waitingTime="6.00" waitingCount="1" stopTime="0.00" timeLoss="29.76" rerouteNo="0" devices="vehroute_47 tripinfo_47 fcd_47" vType="DEFAULT_VEHTYPE" speedFactor="0.90" vaporized=""/>
    <tripinfo id="43" depart="1491.00" departLane="a210_0" departPos="5.10" departSpeed="0.00" departDelay="0.13" arrival="1851.00" arrivalLane="b2[1][1][1]b_0" arrivalPos="325.74" arrivalSpeed="14.38" duration="360.00" routeLength="2611.68" waitingTime="138.00" waitingCount="4" stopTime="0.00" timeLoss="177.78" rerouteNo="0" devices="vehroute_43 tripinfo_43 fcd_43" vType="DEFAULT_VEHTYPE" speedFactor="1.04" vaporized=""/>
    <tripinfo id="48" depart="1620.00" departLane="a210_0" departPos="5.10" departSpeed="0.00" departDelay="0.78" arrival="1978.00" arrivalLane="b4[1][1][1]_0" arrivalPos="171.54" arrivalSpeed="12.08" duration="358.00" routeLength="2767.14" waitingTime="97.00" waitingCount="4" stopTime="0.00" timeLoss="129.07" rerouteNo="0" devices="vehroute_48 tripinfo_48 fcd_48" vType="DEFAULT_VEHTYPE" speedFactor="0.88" vaporized=""/>
    <tripinfo id="51" depart="1733.00" departLane="a210_0" departPos="5.10" departSpeed="0.00" departDelay="0.16" arrival="1979.00" arrivalLane="b4[1][1][1]_0" arrivalPos="171.54" arrivalSpeed="14.37" duration="246.00" routeLength="2767.14" waitingTime="41.00" waitingCount="3" stopTime="0.00" timeLoss="74.71" rerouteNo="0" devices="vehroute_51 tripinfo_51 fcd_51" vType="DEFAULT_VEHTYPE" speedFactor="1.17" vaporized=""/>
    <tripinfo id="49" depart="1636.00" departLane="a210_0" departPos="5.10" departSpeed="0.00" departDelay="0.24" arrival="1982.00" arrivalLane="b4[1][1][1]_0" arrivalPos="171.54" arrivalSpeed="10.94" duration="346.00" routeLength="2764.18" waitingTime="77.00" waitingCount="2" stopTime="0.00" timeLoss="110.65" rerouteNo="0" devices="vehroute_49 tripinfo_49 fcd_49" vType="DEFAULT_VEHTYPE" speedFactor="0.85" vaporized=""/>
    <tripinfo id="50" depart="1656.00" departLane="a210_0" departPos="5.10" departSpeed="0.00" departDelay="0.72" arrival="1985.00" arrivalLane="b4[1][1][1]_0" arrivalPos="171.54" arrivalSpeed="11.81" duration="329.00" routeLength="2767.14" waitingTime="59.00" waitingCount="2" stopTime="0.00" timeLoss="94.40" rerouteNo="0" devices="vehroute_50 tripinfo_50 fcd_50" vType="DEFAULT_VEHTYPE" speedFactor="0.85" vaporized=""/>
    <tripinfo id="53" depart="1757.00" departLane="a210_0" departPos="5.10" departSpeed="0.00" departDelay="0.73" arrival="1987.00" arrivalLane="b4[1][1][1]_0" arrivalPos="171.54" arrivalSpeed="14.86" duration="230.00" routeLength="2767.14" waitingTime="24.00" waitingCount="1" stopTime="0.00" timeLoss="46.62" rerouteNo="0" devices="vehroute_53 tripinfo_53 fcd_53" vType="DEFAULT_VEHTYPE" speedFactor="1.10" vaporized=""/>
    <tripinfo id="52" depart="1754.00" departLane="a210_0" departPos="5.10" departSpeed="0.00" departDelay="0.58" arrival="1988.00" arrivalLane="b4[1][1][1]_0" arrivalPos="171.54" arrivalSpeed="13.97" duration="234.00" routeLength="2767.14" waitingTime="15.00" waitingCount="1" stopTime="0.00" timeLoss="37.07" rerouteNo="0" devices="vehroute_52 tripinfo_52 fcd_52" vType="DEFAULT_VEHTYPE" speedFactor="1.02" vaporized=""/>
    <tripinfo id="54" depart="1760.00" departLane="a210_0" departPos="5.10" departSpeed="0.00" departDelay="2.33" arrival="1990.00" arrivalLane="b4[1][1][1]_0" arrivalPos="171.54" arrivalSpeed="12.92" duration="230.00" routeLength="2767.14" waitingTime="9.00" waitingCount="1" stopTime="0.00" timeLoss="30.17" rerouteNo="0" devices="vehroute_54 tripinfo_54 fcd_54" vType="DEFAULT_VEHTYPE" speedFactor="1.00" vaporized=""/>
    <tripinfo id="57" depart="1834.00" departLane="a210_0" departPos="5.10" departSpeed="0.00" departDelay="0.08" arrival="2113.00" arrivalLane="b4[1][1][1]_0" arrivalPos="171.54" arrivalSpeed="15.29" duration="279.00" routeLength="2764.18" waitingTime="73.00" waitingCount="3" stopTime="0.00" timeLoss="103.92" rerouteNo="0" devices="vehroute_57 tripinfo_57 fcd_57" vType="DEFAULT_VEHTYPE" speedFactor="1.14" vaporized=""/>
    <tripinfo id="55" depart="1810.00" departLane="a210_0" departPos="5.10" departSpeed="0.00" departDelay="0.76" arrival="2117.00" arrivalLane="b4[1][1][1]_0" arrivalPos="171.54" arrivalSpeed="13.68" duration="307.00" routeLength="2767.14" waitingTime="77.00" waitingCount="2" stopTime="0.00" timeLoss="106.00" rerouteNo="0" devices="vehroute_55 tripinfo_55 fcd_55" vType="DEFAULT_VEHTYPE" speedFactor="1.00" vaporized=""/>
    <tripinfo id="56" depart="1823.00" departLane="a210_0" departPos="5.10" departSpeed="0.00" departDelay="0.89" arrival="2121.00" arrivalLane="b4[1][1][1]_0" arrivalPos="171.54" arrivalSpeed="12.09" duration="298.00" routeLength="2767.14" waitingTime="49.00" waitingCount="2" stopTime="0.00" timeLoss="75.17" rerouteNo="0" devices="vehroute_56 tripinfo_56 fcd_56" vType="DEFAULT_VEHTYPE" speedFactor="0.90" vaporized=""/>
    <tripinfo id="58" depart="1898.00" departLane="a210_0" departPos="5.10" departSpeed="0.00" departDelay="0.65" arrival="2134.00" arrivalLane="b4[1][1][1]_0" arrivalPos="171.54" arrivalSpeed="14.05" duration="236.00" routeLength="2767.14" waitingTime="13.00" waitingCount="1" stopTime="0.00" timeLoss="39.90" rerouteNo="0" devices="vehroute_58 tripinfo_58 fcd_58" vType="DEFAULT_VEHTYPE" speedFactor="1.02" vaporized=""/>
    <tripinfo id="59" depart="1928.00" departLane="a210_0" departPos="5.10" departSpeed="0.00" departDelay="0.88" arrival="2150.00" arrivalLane="b4[1][1][1]_0" arrivalPos="171.54" arrivalSpeed="12.56" duration="222.00" routeLength="2767.14" waitingTime="0.00" waitingCount="0" stopTime="0.00" timeLoss="15.00" rerouteNo="0" devices="vehroute_59 tripinfo_59 fcd_59" vType="DEFAULT_VEHTYPE" speedFactor="0.97" vaporized=""/>
    <tripinfo id="61" depart="1979.00" departLane="a210_0" departPos="5.10" departSpeed="0.00" departDelay="0.69" arrival="2271.00" arrivalLane="b4[1][1][1]_0" arrivalPos="171.54" arrivalSpeed="14.33" duration="292.00" routeLength="2767.14" waitingTime="89.00" waitingCount="2" stopTime="0.00" timeLoss="112.64" rerouteNo="0" devices="vehroute_61 tripinfo_61 fcd_61" vType="DEFAULT_VEHTYPE" speedFactor="1.12" vaporized=""/>
    <tripinfo id="60" depart="1973.00" departLane="a210_0" departPos="5.10" departSpeed="0.00" departDelay="0.35" arrival="2273.00" arrivalLane="b4[1][1][1]_0" arrivalPos="171.54" arrivalSpeed="14.22" duration="300.00" routeLength="2764.18" waitingTime="81.00" waitingCount="3" stopTime="0.00" timeLoss="115.18" rerouteNo="0" devices="vehroute_60 tripinfo_60 fcd_60" vType="DEFAULT_VEHTYPE" speedFactor="1.08" vaporized=""/>
    <tripinfo id="62" depart="2183.00" departLane="a210_0" departPos="5.10" departSpeed="0.00" departDelay="0.49" arrival="2434.00" arrivalLane="b4[1][1][1]_0" arrivalPos="171.54" arrivalSpeed="12.94" duration="251.00" routeLength="2767.14" waitingTime="30.00" waitingCount="1" stopTime="0.00" timeLoss="53.98" rerouteNo="0" devices="vehroute_62 tripinfo_62 fcd_62" vType="DEFAULT_VEHTYPE" speedFactor="1.02" vaporized=""/>
    <tripinfo id="63" depart="2215.00" departLane="a210_0" departPos="5.10" departSpeed="0.00" departDelay="0.21" arrival="2595.00" arrivalLane="b4[1][1][1]_0" arrivalPos="171.54" arrivalSpeed="13.47" duration="380.00" routeLength="2767.14" waitingTime="141.00" waitingCount="3" stopTime="0.00" timeLoss="177.06" rerouteNo="0" devices="vehroute_63 tripinfo_63 fcd_63" vType="DEFAULT_VEHTYPE" speedFactor="0.99" vaporized=""/>
    <tripinfo id="64" depart="2231.00" departLane="a210_0" departPos="5.10" departSpeed="0.00" departDelay="0.48" arrival="2598.00" arrivalLane="b4[1][1][1]_0" arrivalPos="171.54" arrivalSpeed="12.38" duration="367.00" routeLength="2767.14" waitingTime="117.00" waitingCount="4" stopTime="0.00" timeLoss="153.55" rerouteNo="0" devices="vehroute_64 tripinfo_64 fcd_64" vType="DEFAULT_VEHTYPE" speedFactor="0.94" vaporized=""/>
    <tripinfo id="67" depart="2310.00" departLane="a210_0" departPos="5.10" departSpeed="0.00" departDelay="2.50" arrival="2601.00" arrivalLane="b4[1][1][1]_0" arrivalPos="171.54" arrivalSpeed="12.34" duration="291.00" routeLength="2764.18" waitingTime="43.00" waitingCount="2" stopTime="0.00" timeLoss="71.95" rerouteNo="0" devices="vehroute_67 tripinfo_67 fcd_67" vType="DEFAULT_VEHTYPE" speedFactor="0.91" vaporized=""/>
    <tripinfo id="65" depart="2247.00" departLane="a210_0" departPos="5.10" departSpeed="0.00" departDelay="0.97" arrival="2604.00" arrivalLane="b4[1][1][1]_0" arrivalPos="171.54" arrivalSpeed="11.85" duration="357.00" routeLength="2764.18" waitingTime="100.00" waitingCount="3" stopTime="0.00" timeLoss="129.68" rerouteNo="0" devices="vehroute_65 tripinfo_65 fcd_65" vType="DEFAULT_VEHTYPE" speedFactor="0.88" vaporized=""/>