<?xml version="1.0" encoding="UTF-8"?>

<!-- generated on 2025-03-21 17:39:28 by Eclipse SUMO sumo Version 1.21.0
<sumoConfiguration xmlns:xsi="http://www.w3.org/2001/XMLSchema-instance" xsi:noNamespaceSchemaLocation="http://sumo.dlr.de/xsd/sumoConfiguration.xsd">

    <input>
        <net-file value="${STATICPATH}/joined_lanes.net.xml"/>
        <route-files value="${SIMULATIONPATH}/generatedRoutes.rou.xml"/>
        <additional-files value="${STATICPATH}/detectors.add.xml,${STATICPATH}/joined_vtypes.add.xml,${STATICPATH}/joined_tls.add.xml"/>
    </input>

    <output>
        <fcd-output value="${SIMULATIONPATH}/fcd.xml"/>
        <queue-output value="${SIMULATIONPATH}/queue.xml"/>
        <summary-output value="${SIMULATIONPATH}/summary.xml"/>
        <tripinfo-output value="${SIMULATIONPATH}/tripinfos.xml"/>
        <vehroute-output value="${SIMULATIONPATH}/vehroute.xml"/>
        <save-state.prefix value="configs\state"/>
    </output>

    <processing>
        <ignore-junction-blocker value="1"/>
        <ignore-route-errors value="true"/>
        <time-to-teleport value="-1"/>
    </processing>

    <report>
        <log value="C:/Users/fabio/Desktop/sumo_log.txt"/>
        <no-step-log value="true"/>
    </report>

    <emissions>
        <phemlight-path value="configs\./PHEMlight/"/>
    </emissions>

    <traci_server>
        <remote-port value="60124"/>
    </traci_server>

</sumoConfiguration>
-->

<tripinfos xmlns:xsi="http://www.w3.org/2001/XMLSchema-instance" xsi:noNamespaceSchemaLocation="http://sumo.dlr.de/xsd/tripinfo_file.xsd">
    <tripinfo id="0" depart="2.00" departLane="a171_0" departPos="5.10" departSpeed="0.00" departDelay="0.80" arrival="485.00" arrivalLane="b2[1][1][1]b_0" arrivalPos="325.74" arrivalSpeed="13.65" duration="483.00" routeLength="3058.11" waitingTime="222.00" waitingCount="6" stopTime="0.00" timeLoss="272.44" rerouteNo="0" devices="vehroute_0 tripinfo_0 fcd_0" vType="DEFAULT_VEHTYPE" speedFactor="1.06" vaporized=""/>
    <tripinfo id="2" depart="83.00" departLane="a171_0" departPos="5.10" departSpeed="0.00" departDelay="0.58" arrival="488.00" arrivalLane="b2[1][1][1]b_0" arrivalPos="325.74" arrivalSpeed="13.76" duration="405.00" routeLength="3050.66" waitingTime="134.00" waitingCount="5" stopTime="0.00" timeLoss="184.83" rerouteNo="0" devices="vehroute_2 tripinfo_2 fcd_2" vType="DEFAULT_VEHTYPE" speedFactor="1.01" vaporized=""/>
    <tripinfo id="3" depart="154.00" departLane="a171_0" departPos="5.10" departSpeed="0.00" departDelay="0.52" arrival="488.00" arrivalLane="b2[1][1][1]b_1" arrivalPos="325.74" arrivalSpeed="13.96" duration="334.00" routeLength="3053.62" waitingTime="89.00" waitingCount="3" stopTime="0.00" timeLoss="128.26" rerouteNo="0" devices="vehroute_3 tripinfo_3 fcd_3" vType="DEFAULT_VEHTYPE" speedFactor="1.08" vaporized=""/>
    <tripinfo id="1" depart="64.00" departLane="a171_0" departPos="5.10" departSpeed="0.00" departDelay="0.32" arrival="495.00" arrivalLane="b2[1][1][1]b_0" arrivalPos="325.74" arrivalSpeed="12.10" duration="431.00" routeLength="3058.11" waitingTime="150.00" waitingCount="4" stopTime="0.00" timeLoss="192.77" rerouteNo="0" devices="vehroute_1 tripinfo_1 fcd_1" vType="DEFAULT_VEHTYPE" speedFactor="0.94" vaporized=""/>
    <tripinfo id="4" depart="233.00" departLane="a171_0" departPos="5.10" departSpeed="0.00" departDelay="0.38" arrival="615.00" arrivalLane="b2[1][1][1]b_0" arrivalPos="325.74" arrivalSpeed="13.31" duration="382.00" routeLength="3058.11" waitingTime="122.00" waitingCount="4" stopTime="0.00" timeLoss="165.48" rerouteNo="0" devices="vehroute_4 tripinfo_4 fcd_4" vType="DEFAULT_VEHTYPE" speedFactor="1.03" vaporized=""/>
    <tripinfo id="6" depart="288.00" departLane="a171_0" departPos="5.10" departSpeed="0.00" departDelay="0.12" arrival="615.00" arrivalLane="b2[1][1][1]b_1" arrivalPos="325.74" arrivalSpeed="14.15" duration="327.00" routeLength="3053.62" waitingTime="71.00" waitingCount="3" stopTime="0.00" timeLoss="113.94" rerouteNo="0" devices="vehroute_6 tripinfo_6 fcd_6" vType="DEFAULT_VEHTYPE" speedFactor="1.05" vaporized=""/>
    <tripinfo id="5" depart="269.00" departLane="a171_0" departPos="5.10" departSpeed="0.00" departDelay="0.33" arrival="760.00" arrivalLane="b2[1][1][1]b_0" arrivalPos="325.74" arrivalSpeed="10.66" duration="491.00" routeLength="3055.15" waitingTime="176.00" waitingCount="6" stopTime="0.00" timeLoss="222.39" rerouteNo="0" devices="vehroute_5 tripinfo_5 fcd_5" vType="DEFAULT_VEHTYPE" speedFactor="0.83" vaporized=""/>
    <tripinfo id="13" depart="538.00" departLane="a171_0" departPos="5.10" departSpeed="0.00" departDelay="0.74" arrival="877.00" arrivalLane="b2[1][1][1]b_1" arrivalPos="325.74" arrivalSpeed="15.02" duration="339.00" routeLength="3055.15" waitingTime="89.00" waitingCount="4" stopTime="0.00" timeLoss="139.74" rerouteNo="0" devices="vehroute_13 tripinfo_13 fcd_13" vType="DEFAULT_VEHTYPE" speedFactor="1.12" vaporized=""/>
    <tripinfo id="10" depart="482.00" departLane="a171_0" departPos="5.10" departSpeed="0.00" departDelay="0.31" arrival="878.00" arrivalLane="b2[1][1][1]b_0" arrivalPos="325.74" arrivalSpeed="14.07" duration="396.00" routeLength="3050.66" waitingTime="118.00" waitingCount="5" stopTime="0.00" timeLoss="191.46" rerouteNo="0" devices="vehroute_10 tripinfo_10 fcd_10" vType="DEFAULT_VEHTYPE" speedFactor="1.09" vaporized=""/>
    <tripinfo id="11" depart="502.00" departLane="a171_0" departPos="5.10" departSpeed="0.00" departDelay="0.89" arrival="880.00" arrivalLane="b2[1][1][1]b_0" arrivalPos="325.74" arrivalSpeed="13.47" duration="378.00" routeLength="3053.62" waitingTime="113.00" waitingCount="4" stopTime="0.00" timeLoss="160.62" rerouteNo="0" devices="vehroute_11 tripinfo_11 fcd_11" vType="DEFAULT_VEHTYPE" speedFactor="1.03" vaporized=""/>
    <tripinfo id="12" depart="509.00" departLane="a171_0" departPos="5.10" departSpeed="0.00" departDelay="0.40" arrival="882.00" arrivalLane="b2[1][1][1]b_2" arrivalPos="325.74" arrivalSpeed="14.17" duration="373.00" routeLength="3050.66" waitingTime="83.00" waitingCount="3" stopTime="0.00" timeLoss="159.93" rerouteNo="0" devices="vehroute_12 tripinfo_12 fcd_12" vType="DEFAULT_VEHTYPE" speedFactor="1.05" vaporized=""/>
    <tripinfo id="14" depart="554.00" departLane="a171_0" departPos="5.10" departSpeed="0.00" departDelay="0.35" arrival="882.00" arrivalLane="b2[1][1][1]b_0" arrivalPos="325.74" arrivalSpeed="13.42" duration="328.00" routeLength="3053.62" waitingTime="60.00" waitingCount="4" stopTime="0.00" timeLoss="103.73" rerouteNo="0" devices="vehroute_14 tripinfo_14 fcd_14" vType="DEFAULT_VEHTYPE" speedFactor="0.99" vaporized=""/>
    <tripinfo id="8" depart="442.00" departLane="a171_0" departPos="5.10" departSpeed="0.00" departDelay="2.67" arrival="885.00" arrivalLane="b2[1][1][1]b_0" arrivalPos="325.74" arrivalSpeed="12.03" duration="443.00" routeLength="3058.11" waitingTime="153.00" waitingCount="6" stopTime="0.00" timeLoss="204.83" rerouteNo="0" devices="vehroute_8 tripinfo_8 fcd_8" vType="DEFAULT_VEHTYPE" speedFactor="0.94" vaporized=""/>
    <tripinfo id="7" depart="439.00" departLane="a171_0" departPos="5.10" departSpeed="0.00" departDelay="0.66" arrival="888.00" arrivalLane="b2[1][1][1]b_0" arrivalPos="325.74" arrivalSpeed="12.01" duration="449.00" routeLength="3050.66" waitingTime="144.00" waitingCount="5" stopTime="0.00" timeLoss="198.03" rerouteNo="0" devices="vehroute_7 tripinfo_7 fcd_7" vType="DEFAULT_VEHTYPE" speedFactor="0.89" vaporized=""/>
    <tripinfo id="9" depart="458.00" departLane="a171_0" departPos="5.10" departSpeed="0.00" departDelay="0.08" arrival="889.00" arrivalLane="b2[1][1][1]b_1" arrivalPos="325.74" arrivalSpeed="11.85" duration="431.00" routeLength="3053.62" waitingTime="121.00" waitingCount="5" stopTime="0.00" timeLoss="170.73" rerouteNo="0" devices="vehroute_9 tripinfo_9 fcd_9" vType="DEFAULT_VEHTYPE" speedFactor="0.86" vaporized=""/>
    <tripinfo id="19" depart="683.00" departLane="a171_0" departPos="5.10" departSpeed="0.00" departDelay="0.10" arrival="1001.00" arrivalLane="b2[1][1][1]b_0" arrivalPos="325.74" arrivalSpeed="15.10" duration="318.00" routeLength="3053.62" waitingTime="68.00" waitingCount="3" stopTime="0.00" timeLoss="125.10" rerouteNo="0" devices="vehroute_19 tripinfo_19 fcd_19" vType="DEFAULT_VEHTYPE" speedFactor="1.16" vaporized=""/>
    <tripinfo id="20" depart="691.00" departLane="a171_0" departPos="5.10" departSpeed="0.00" departDelay="0.58" arrival="1005.00" arrivalLane="b2[1][1][1]b_1" arrivalPos="325.74" arrivalSpeed="13.60" duration="314.00" routeLength="3053.62" waitingTime="50.00" waitingCount="3" stopTime="0.00" timeLoss="94.35" rerouteNo="0" devices="vehroute_20 tripinfo_20 fcd_20" vType="DEFAULT_VEHTYPE" speedFactor="1.02" vaporized=""/>
    <tripinfo id="15" depart="615.00" departLane="a171_0" departPos="5.10" departSpeed="0.00" departDelay="0.61" arrival="1007.00" arrivalLane="b2[1][1][1]b_0" arrivalPos="325.74" arrivalSpeed="12.32" duration="392.00" routeLength="3058.11" waitingTime="108.00" waitingCount="5" stopTime="0.00" timeLoss="151.15" rerouteNo="0" devices="vehroute_15 tripinfo_15 fcd_15" vType="DEFAULT_VEHTYPE" speedFactor="0.93" vaporized=""/>
    <tripinfo id="21" depart="716.00" departLane="a171_0" departPos="5.10" departSpeed="0.00" departDelay="0.12" arrival="1007.00" arrivalLane="b2[1][1][1]b_2" arrivalPos="325.74" arrivalSpeed="13.46" duration="291.00" routeLength="3053.62" waitingTime="34.00" waitingCount="2" stopTime="0.00" timeLoss="70.12" rerouteNo="0" devices="vehroute_21 tripinfo_21 fcd_21" vType="DEFAULT_VEHTYPE" speedFactor="1.01" vaporized=""/>
    <tripinfo id="17" depart="637.00" departLane="a171_0" departPos="5.10" departSpeed="0.00" departDelay="0.21" arrival="1009.00" arrivalLane="b2[1][1][1]b_0" arrivalPos="325.74" arrivalSpeed="11.97" duration="372.00" routeLength="3053.62" waitingTime="72.00" waitingCount="5" stopTime="0.00" timeLoss="134.86" rerouteNo="0" devices="vehroute_17 tripinfo_17 fcd_17" vType="DEFAULT_VEHTYPE" speedFactor="0.94" vaporized=""/>
    <tripinfo id="18" depart="640.00" departLane="a171_0" departPos="5.10" departSpeed="0.00" departDelay="0.04" arrival="1009.00" arrivalLane="b2[1][1][1]b_1" arrivalPos="325.74" arrivalSpeed="12.12" duration="369.00" routeLength="3058.11" waitingTime="72.00" waitingCount="5" stopTime="0.00" timeLoss="129.58" rerouteNo="0" devices="vehroute_18 tripinfo_18 fcd_18" vType="DEFAULT_VEHTYPE" speedFactor="0.94" vaporized=""/>
    <tripinfo id="16" depart="626.00" departLane="a171_0" departPos="5.10" departSpeed="0.00" departDelay="0.49" arrival="1014.00" arrivalLane="b2[1][1][1]b_0" arrivalPos="325.74" arrivalSpeed="11.62" duration="388.00" routeLength="3050.66" waitingTime="77.00" waitingCount="6" stopTime="0.00" timeLoss="133.60" rerouteNo="0" devices="vehroute_16 tripinfo_16 fcd_16" vType="DEFAULT_VEHTYPE" speedFactor="0.88" vaporized=""/>
    <tripinfo id="22" depart="763.00" departLane="a171_0" departPos="5.10" departSpeed="0.00" departDelay="0.68" arrival="1131.00" arrivalLane="b2[1][1][1]b_0" arrivalPos="325.74" arrivalSpeed="13.39" duration="368.00" routeLength="3055.15" waitingTime="77.00" waitingCount="6" stopTime="0.00" timeLoss="139.71" rerouteNo="0" devices="vehroute_22 tripinfo_22 fcd_22" vType="DEFAULT_VEHTYPE" speedFactor="0.97" vaporized=""/>
    <tripinfo id="23" depart="766.00" departLane="a171_0" departPos="5.10" departSpeed="0.00" departDelay="2.86" arrival="1133.00" arrivalLane="b2[1][1][1]b_0" arrivalPos="325.74" arrivalSpeed="12.35" duration="367.00" routeLength="3050.66" waitingTime="63.00" waitingCount="6" stopTime="0.00" timeLoss="116.15" rerouteNo="0" devices="vehroute_23 tripinfo_23 fcd_23" vType="DEFAULT_VEHTYPE" speedFactor="0.89" vaporized=""/>
    <tripinfo id="28" depart="841.00" departLane="a171_0" departPos="5.10" departSpeed="0.00" departDelay="3.48" arrival="1251.00" arrivalLane="b2[1][1][1]b_0" arrivalPos="325.74" arrivalSpeed="15.43" duration="410.00" routeLength="3055.15" waitingTime="146.00" waitingCount="6" stopTime="0.00" timeLoss="212.71" rerouteNo="0" devices="vehroute_28 tripinfo_28 fcd_28" vType="DEFAULT_VEHTYPE" speedFactor="1.13" vaporized=""/>
    <tripinfo id="30" depart="895.00" departLane="a171_0" departPos="5.10" departSpeed="0.00" departDelay="0.11" arrival="1376.00" arrivalLane="b2[1][1][1]b_0" arrivalPos="325.74" arrivalSpeed="15.41" duration="481.00" routeLength="3050.66" waitingTime="203.00" waitingCount="5" stopTime="0.00" timeLoss="291.35" rerouteNo="0" devices="vehroute_30 tripinfo_30 fcd_30" vType="DEFAULT_VEHTYPE" speedFactor="1.18" vaporized=""/>
    <tripinfo id="31" depart="956.00" departLane="a171_0" departPos="5.10" departSpeed="0.00" departDelay="0.61" arrival="1376.00" arrivalLane="b2[1][1][1]b_1" arrivalPos="325.74" arrivalSpeed="15.59" duration="420.00" routeLength="3055.15" waitingTime="161.00" waitingCount="5" stopTime="0.00" timeLoss="227.07" rerouteNo="0" devices="vehroute_31 tripinfo_31 fcd_31" vType="DEFAULT_VEHTYPE" speedFactor="1.15" vaporized=""/>
    <tripinfo id="35" depart="1071.00" departLane="a171_0" departPos="5.10" departSpeed="0.00" departDelay="0.52" arrival="1382.00" arrivalLane="b2[1][1][1]b_1" arrivalPos="325.74" arrivalSpeed="13.87" duration="311.00" routeLength="3058.11" waitingTime="46.00" waitingCount="4" stopTime="0.00" timeLoss="92.14" rerouteNo="0" devices="vehroute_35 tripinfo_35 fcd_35" vType="DEFAULT_VEHTYPE" speedFactor="1.02" vaporized=""/>
    <tripinfo id="26" depart="825.00" departLane="a171_0" departPos="5.10" departSpeed="0.00" departDelay="0.98" arrival="1383.00" arrivalLane="b2[1][1][1]b_0" arrivalPos="325.74" arrivalSpeed="12.51" duration="558.00" routeLength="3050.66" waitingTime="246.00" waitingCount="6" stopTime="0.00" timeLoss="314.39" rerouteNo="0" devices="vehroute_26 tripinfo_26 fcd_26" vType="DEFAULT_VEHTYPE" speedFactor="0.92" vaporized=""/>
    <tripinfo id="33" depart="962.00" departLane="a171_0" departPos="5.10" departSpeed="0.00" departDelay="4.33" arrival="1383.00" arrivalLane="b2[1][1][1]b_2" arrivalPos="325.74" arrivalSpeed="15.42" duration="421.00" routeLength="3053.62" waitingTime="152.00" waitingCount="5" stopTime="0.00" timeLoss="230.40" rerouteNo="0" devices="vehroute_33 tripinfo_33 fcd_33" vType="DEFAULT_VEHTYPE" speedFactor="1.17" vaporized=""/>
    <tripinfo id="29" depart="877.00" departLane="a171_0" departPos="5.10" departSpeed="0.00" departDelay="0.48" arrival="1384.00" arrivalLane="b2[1][1][1]b_1" arrivalPos="325.74" arrivalSpeed="12.49" duration="507.00" routeLength="3053.62" waitingTime="205.00" waitingCount="5" stopTime="0.00" timeLoss="267.67" rerouteNo="0" devices="vehroute_29 tripinfo_29 fcd_29" vType="DEFAULT_VEHTYPE" speedFactor="0.93" vaporized=""/>
    <tripinfo id="25" depart="806.00" departLane="a171_0" departPos="5.10" departSpeed="0.00" departDelay="0.99" arrival="1386.00" arrivalLane="b2[1][1][1]b_0" arrivalPos="325.74" arrivalSpeed="10.98" duration="580.00" routeLength="3053.62" waitingTime="272.00" waitingCount="6" stopTime="0.00" timeLoss="324.55" rerouteNo="0" devices="vehroute_25 tripinfo_25 fcd_25" vType="DEFAULT_VEHTYPE" speedFactor="0.87" vaporized=""/>
    <tripinfo id="32" depart="959.00" departLane="a171_0" departPos="5.10" departSpeed="0.00" departDelay="1.94" arrival="1386.00" arrivalLane="b2[1][1][1]b_2" arrivalPos="325.74" arrivalSpeed="12.95" duration="427.00" routeLength="3053.62" waitingTime="145.00" waitingCount="5" stopTime="0.00" timeLoss="205.19" rerouteNo="0" devices="vehroute_32 tripinfo_32 fcd_32" vType="DEFAULT_VEHTYPE" speedFactor="1.01" vaporized=""/>
    <tripinfo id="34" depart="1000.00" departLane="a171_0" departPos="5.10" departSpeed="0.00" departDelay="0.09" arrival="1386.00" arrivalLane="b2[1][1][1]b_1" arrivalPos="325.74" arrivalSpeed="13.11" duration="386.00" routeLength="3053.62" waitingTime="111.00" waitingCount="3" stopTime="0.00" timeLoss="161.37" rerouteNo="0" devices="vehroute_34 tripinfo_34 fcd_34" vType="DEFAULT_VEHTYPE" speedFactor="0.99" vaporized=""/>
    <tripinfo id="27" depart="838.00" departLane="a171_0" departPos="5.10" departSpeed="0.00" departDelay="0.82" arrival="1389.00" arrivalLane="b2[1][1][1]b_1" arrivalPos="325.74" arrivalSpeed="12.11" duration="551.00" routeLength="3050.66" waitingTime="221.00" waitingCount="6" stopTime="0.00" timeLoss="315.24" rerouteNo="0" devices="vehroute_27 tripinfo_27 fcd_27" vType="DEFAULT_VEHTYPE" speedFactor="0.95" vaporized=""/>
    <tripinfo id="24" depart="795.00" departLane="a171_0" departPos="5.10" departSpeed="0.00" departDelay="0.11" arrival="1390.00" arrivalLane="b2[1][1][1]b_0" arrivalPos="325.74" arrivalSpeed="11.05" duration="595.00" routeLength="3058.11" waitingTime="264.00" waitingCount="6" stopTime="0.00" timeLoss="324.56" rerouteNo="0" devices="vehroute_24 tripinfo_24 fcd_24" vType="DEFAULT_VEHTYPE" speedFactor="0.83" vaporized=""/>
    <tripinfo id="37" depart="1144.00" departLane="a171_0" departPos="5.10" departSpeed="0.00" departDelay="0.89" arrival="1463.00" arrivalLane="b2[1][1][1]b_0" arrivalPos="325.74" arrivalSpeed="15.99" duration="319.00" routeLength="3053.62" waitingTime="98.00" waitingCount="2" stopTime="0.00" timeLoss="129.83" rerouteNo="0" devices="vehroute_37 tripinfo_37 fcd_37" vType="DEFAULT_VEHTYPE" speedFactor="1.18" vaporized=""/>
    <tripinfo id="38" depart="1162.00" departLane="a171_0" departPos="5.10" departSpeed="0.00" departDelay="0.90" arrival="1502.00" arrivalLane="b2[1][1][1]b_0" arrivalPos="325.74" arrivalSpeed="14.26" duration="340.00" routeLength="3050.66" waitingTime="95.00" waitingCount="3" stopTime="0.00" timeLoss="138.24" rerouteNo="0" devices="vehroute_38 tripinfo_38 fcd_38" vType="DEFAULT_VEHTYPE" speedFactor="1.10" vaporized=""/>
    <tripinfo id="36" depart="1130.00" departLane="a171_0" departPos="5.10" departSpeed="0.00" departDelay="0.58" arrival="1506.00" arrivalLane="b2[1][1][1]b_0" arrivalPos="325.74" arrivalSpeed="12.46" duration="376.00" routeLength="3053.62" waitingTime="109.00" waitingCount="4" stopTime="0.00" timeLoss="146.58" rerouteNo="0" devices="vehroute_36 tripinfo_36 fcd_36" vType="DEFAULT_VEHTYPE" speedFactor="0.97" vaporized=""/>
    <tripinfo id="39" depart="1165.00" departLane="a171_0" departPos="5.10" departSpeed="0.00" departDelay="0.40" arrival="1633.00" arrivalLane="b2[1][1][1]b_0" arrivalPos="325.74" arrivalSpeed="12.36" duration="468.00" routeLength="3055.15" waitingTime="174.00" waitingCount="5" stopTime="0.00" timeLoss="220.05" rerouteNo="0" devices="vehroute_39 tripinfo_39 fcd_39" vType="DEFAULT_VEHTYPE" speedFactor="0.90" vaporized=""/>
    <tripinfo id="42" depart="1338.00" departLane="a171_0" departPos="5.10" departSpeed="0.00" departDelay="0.93" arrival="1713.00" arrivalLane="b2[1][1][1]b_0" arrivalPos="325.74" arrivalSpeed="14.26" duration="375.00" routeLength="3050.66" waitingTime="129.00" waitingCount="3" stopTime="0.00" timeLoss="171.21" rerouteNo="0" devices="vehroute_42 tripinfo_42 fcd_42" vType="DEFAULT_VEHTYPE" speedFactor="1.09" vaporized=""/>
    <tripinfo id="40" depart="1276.00" departLane="a171_0" departPos="5.10" departSpeed="0.00" departDelay="0.75" arrival="1717.00" arrivalLane="b2[1][1][1]b_0" arrivalPos="325.74" arrivalSpeed="14.09" duration="441.00" routeLength="3058.11" waitingTime="179.00" waitingCount="4" stopTime="0.00" timeLoss="224.10" rerouteNo="0" devices="vehroute_40 tripinfo_40 fcd_40" vType="DEFAULT_VEHTYPE" speedFactor="1.03" vaporized=""/>
    <tripinfo id="45" depart="1413.00" departLane="a171_0" departPos="5.10" departSpeed="0.00" departDelay="0.38" arrival="1753.00" arrivalLane="b2[1][1][1]b_2" arrivalPos="325.74" arrivalSpeed="14.73" duration="340.00" routeLength="3053.62" waitingTime="85.00" waitingCount="4" stopTime="0.00" timeLoss="135.04" rerouteNo="0" devices="vehroute_45 tripinfo_45 fcd_45" vType="DEFAULT_VEHTYPE" speedFactor="1.09" vaporized=""/>
    <tripinfo id="43" depart="1392.00" departLane="a171_0" departPos="5.10" departSpeed="0.00" departDelay="0.74" arrival="1754.00" arrivalLane="b2[1][1][1]b_1" arrivalPos="325.74" arrivalSpeed="13.20" duration="362.00" routeLength="3050.66" waitingTime="96.00" waitingCount="4" stopTime="0.00" timeLoss="147.01" rerouteNo="0" devices="vehroute_43 tripinfo_43 fcd_43" vType="DEFAULT_VEHTYPE" speedFactor="1.04" vaporized=""/>
    <tripinfo id="44" depart="1395.00" departLane="a171_0" departPos="5.10" departSpeed="0.00" departDelay="1.52" arrival="1754.00" arrivalLane="b2[1][1][1]b_0" arrivalPos="325.74" arrivalSpeed="14.18" duration="359.00" routeLength="3058.11" waitingTime="100.00" waitingCount="4" stopTime="0.00" timeLoss="144.37" rerouteNo="0" devices="vehroute_44 tripinfo_44 fcd_44" vType="DEFAULT_VEHTYPE" speedFactor="1.04" vaporized=""/>
    <tripinfo id="41" depart="1314.00" departLane="a171_0" departPos="5.10" departSpeed="0.00" departDelay="0.73" arrival="1758.00" arrivalLane="b2[1][1][1]b_0" arrivalPos="325.74" arrivalSpeed="13.27" duration="444.00" routeLength="3050.66" waitingTime="163.00" waitingCount="5" stopTime="0.00" timeLoss="210.89" rerouteNo="0" devices="vehroute_41 tripinfo_41 fcd_41" vType="DEFAULT_VEHTYPE" speedFactor="0.96" vaporized=""/>
    <tripinfo id="46" depart="1458.00" departLane="a171_0" departPos="5.10" departSpeed="0.00" departDelay="0.73" arrival="1842.00" arrivalLane="b2[1][1][1]b_0" arrivalPos="325.74" arrivalSpeed="13.52" duration="384.00" routeLength="3050.66" waitingTime="118.00" waitingCount="4" stopTime="0.00" timeLoss="159.93" rerouteNo="0" devices="vehroute_46 tripinfo_46 fcd_46" vType="DEFAULT_VEHTYPE" speedFactor="1.00" vaporized=""/>
    <tripinfo id="47" depart="1507.00" departLane="a171_0" departPos="5.10" departSpeed="0.00" departDelay="0.11" arrival="1972.00" arrivalLane="b2[1][1][1]b_0" arrivalPos="325.74" arrivalSpeed="12.07" duration="465.00" routeLength="3055.15" waitingTime="175.00" waitingCount="5" stopTime="0.00" timeLoss="217.33" rerouteNo="0" devices="vehroute_47 tripinfo_47 fcd_47" vType="DEFAULT_VEHTYPE" speedFactor="0.90" vaporized=""/>
    <tripinfo id="48" depart="1550.00" departLane="a171_0" departPos="5.10" departSpeed="0.00" departDelay="0.79" arrival="1974.00" arrivalLane="b2[1][1][1]b_0" arrivalPos="325.74" arrivalSpeed="11.37" duration="424.00" routeLength="3053.62" waitingTime="126.00" waitingCount="5" stopTime="0.00" timeLoss="169.80" rerouteNo="0" devices="vehroute_48 tripinfo_48 fcd_48" vType="DEFAULT_VEHTYPE" speedFactor="0.88" vaporized=""/>
    <tripinfo id="51" depart="1734.00" departLane="a171_0" departPos="5.10" departSpeed="0.00" departDelay="0.11" arrival="2078.00" arrivalLane="b2[1][1][1]b_0" arrivalPos="325.74" arrivalSpeed="16.17" duration="344.00" routeLength="3050.66" waitingTime="104.00" waitingCount="5" stopTime="0.00" timeLoss="153.39" rerouteNo="0" devices="vehroute_51 tripinfo_51 fcd_51" vType="DEFAULT_VEHTYPE" speedFactor="1.17" vaporized=""/>
    <tripinfo id="52" depart="1745.00" departLane="a171_0" departPos="5.10" departSpeed="0.00" departDelay="0.43" arrival="2089.00" arrivalLane="b2[1][1][1]b_0" arrivalPos="325.74" arrivalSpeed="13.11" duration="344.00" routeLength="3050.66" waitingTime="54.00" waitingCount="3" stopTime="0.00" timeLoss="123.93" rerouteNo="0" devices="vehroute_52 tripinfo_52 fcd_52" vType="DEFAULT_VEHTYPE" speedFactor="1.02" vaporized=""/>
    <tripinfo id="50" depart="1726.00" departLane="a171_0" departPos="5.10" departSpeed="0.00" departDelay="0.32" arrival="2100.00" arrivalLane="b2[1][1][1]b_0" arrivalPos="325.74" arrivalSpeed="10.62" duration="374.00" routeLength="3055.15" waitingTime="72.00" waitingCount="4" stopTime="0.00" timeLoss="112.48" rerouteNo="0" devices="vehroute_50 tripinfo_50 fcd_50" vType="DEFAULT_VEHTYPE" speedFactor="0.85" vaporized=""/>
    <tripinfo id="49" depart="1722.00" departLane="a171_0" departPos="5.10" departSpeed="0.00" departDelay="0.36" arrival="2103.00" arrivalLane="b2[1][1][1]b_0" arrivalPos="325.74" arrivalSpeed="11.05" duration="381.00" routeLength="3050.66" waitingTime="68.00" waitingCount="4" stopTime="0.00" timeLoss="119.08" rerouteNo="0" devices="vehroute_49 tripinfo_49 fcd_49" vType="DEFAULT_VEHTYPE" speedFactor="0.85" vaporized=""/>
    <tripinfo id="53" depart="1798.00" departLane="a171_0" departPos="5.10" departSpeed="0.00" departDelay="0.40" arrival="2209.00" arrivalLane="b2[1][1][1]b_0" arrivalPos="325.74" arrivalSpeed="14.72" duration="411.00" routeLength="3058.11" waitingTime="155.00" waitingCount="5" stopTime="0.00" timeLoss="207.55" rerouteNo="0" devices="vehroute_53 tripinfo_53 fcd_53" vType="DEFAULT_VEHTYPE" speedFactor="1.10" vaporized=""/>
    <tripinfo id="54" depart="1822.00" departLane="a171_0" departPos="5.10" departSpeed="0.00" departDelay="0.01" arrival="2211.00" arrivalLane="b2[1][1][1]b_1" arrivalPos="325.74" arrivalSpeed="13.48" duration="389.00" routeLength="3050.66" waitingTime="122.00" waitingCount="4" stopTime="0.00" timeLoss="166.51" rerouteNo="0" devices="vehroute_54 tripinfo_54 fcd_54" vType="DEFAULT_VEHTYPE" speedFactor="1.00" vaporized=""/>
    <tripinfo id="55" depart="1892.00" departLane="a171_0" departPos="5.10" departSpeed="0.00" departDelay="0.18" arrival="2214.00" arrivalLane="b2[1][1][1]b_0" arrivalPos="325.74" arrivalSpeed="13.14" duration="322.00" routeLength="3050.66" waitingTime="58.00" waitingCount="4" stopTime="0.00" timeLoss="97.77" rerouteNo="0" devices="vehroute_55 tripinfo_55 fcd_55" vType="DEFAULT_VEHTYPE" speedFactor="1.00" vaporized=""/>
    <tripinfo id="56" depart="1917.00" departLane="a171_0" departPos="5.10" departSpeed="0.00" departDelay="0.07" arrival="2226.00" arrivalLane="b2[1][1][1]b_0" arrivalPos="325.74" arrivalSpeed="11.87" duration="309.00" routeLength="3058.11" waitingTime="27.00" waitingCount="2" stopTime="0.00" timeLoss="59.69" rerouteNo="0" devices="vehroute_56 tripinfo_56 fcd_56" vType="DEFAULT_VEHTYPE" speedFactor="0.90" vaporized=""/>
    <tripinfo id="57" depart="2032.00" departLane="a171_0" departPos="5.10" departSpeed="0.00" departDelay="0.01" arrival="2339.00" arrivalLane="b2[1][1][1]b_0" arrivalPos="325.74" arrivalSpeed="15.27" duration="307.00" routeLength="3058.11" waitingTime="64.00" waitingCount="5" stopTime="0.00" timeLoss="111.39" rerouteNo="0" devices="vehroute_57 tripinfo_57 fcd_57" vType="DEFAULT_VEHTYPE" speedFactor="1.14" vaporized=""/>
    <tripinfo id="58" depart="2063.00" departLane="a171_0" departPos="5.10" departSpeed="0.00" departDelay="0.05" arrival="2341.00" arrivalLane="b2[1][1][1]b_0" arrivalPos="325.74" arrivalSpeed="13.04" duration="278.00" routeLength="3050.66" waitingTime="27.00" waitingCount="3" stopTime="0.00" timeLoss="60.13" rerouteNo="0" devices="vehroute_58 tripinfo_58 fcd_58" vType="DEFAULT_VEHTYPE" speedFactor="1.02" vaporized=""/>
    <tripinfo id="60" depart="2096.00" departLane="a171_0" departPos="5.10" departSpeed="0.00" departDelay="0.27" arrival="2349.00" arrivalLane="b2[1][1][1]b_0" arrivalPos="325.74" arrivalSpeed="14.02" duration="253.00" routeLength="3053.62" waitingTime="22.00" waitingCount="1" stopTime="0.00" timeLoss="47.29" rerouteNo="0" devices="vehroute_60 tripinfo_60 fcd_60" vType="DEFAULT_VEHTYPE" speedFactor="1.08" vaporized=""/>
    <tripinfo id="61" depart="2140.00" departLane="a171_0" departPos="5.10" departSpeed="0.00" departDelay="0.55" arrival="2572.00" arrivalLane="b2[1][1][1]b_0" arrivalPos="325.74" arrivalSpeed="15.45" duration="432.00" routeLength="3055.15" waitingTime="183.00" waitingCount="6" stopTime="0.00" timeLoss="233.25" rerouteNo="0" devices="vehroute_61 tripinfo_61 fcd_61" vType="DEFAULT_VEHTYPE" speedFactor="1.12" vaporized=""/>
    <tripinfo id="62" depart="2170.00" departLane="a171_0" departPos="5.10" departSpeed="0.00" departDelay="0.81" arrival="2579.00" arrivalLane="b2[1][1][1]b_0" arrivalPos="325.74" arrivalSpeed="14.01" duration="409.00" routeLength="3053.62" waitingTime="136.00" waitingCount="6" stopTime="0.00" timeLoss="188.15" rerouteNo="0" devices="vehroute_62 tripinfo_62 fcd_62" vType="DEFAULT_VEHTYPE" speedFactor="1.02" vaporized=""/>
    <tripinfo id="70" depart="2326.00" departLane="a171_0" departPos="5.10" departSpeed="0.00" departDelay="0.08" arrival="2581.00" arrivalLane="b2[1][1][1]b_1" arrivalPos="325.74" arrivalSpeed="13.19" duration="255.00" routeLength="3053.62" waitingTime="5.00" waitingCount="2" stopTime="0.00" timeLoss="37.80" rerouteNo="0" devices="vehroute_70 tripinfo_70 fcd_70" vType="DEFAULT_VEHTYPE" speedFactor="1.02" vaporized=""/>
    <tripinfo id="63" depart="2183.00" departLane="a171_0" departPos="5.10" departSpeed="0.00" departDelay="0.06" arrival="2582.00" arrivalLane="b2[1][1][1]b_0" arrivalPos="325.74" arrivalSpeed="12.99" duration="399.00" routeLength="3050.66" waitingTime="111.00" waitingCount="6" stopTime="0.00" timeLoss="173.06" rerouteNo="0" devices="vehroute_63 tripinfo_63 fcd_63" vType="DEFAULT_VEHTYPE" speedFactor="0.99" vaporized=""/>
    <tripinfo id="69" depart="2280.00" departLane="a171_0" departPos="5.10" departSpeed="0.00" departDelay="0.52" arrival="2619.00" arrivalLane="b2[1][1][1]b_1" arrivalPos="325.74" arrivalSpeed="13.81" duration="339.00" routeLength="3053.62" waitingTime="80.00" waitingCount="3" stopTime="0.00" timeLoss="120.21" rerouteNo="0" devices="vehroute_69 tripinfo_69 fcd_69" vType="DEFAULT_VEHTYPE" speedFactor="1.02" vaporized=""/>
    <tripinfo id="59" depart="2071.00" departLane="a171_0" departPos="5.10" departSpeed="0.00" departDelay="0.41" arrival="2620.00" arrivalLane="b2[1][1][1]b_0" arrivalPos="325.74" arrivalSpeed="13.35" duration="549.00" routeLength="3053.62" waitingTime="268.00" waitingCount="6" stopTime="0.00" timeLoss="319.27" rerouteNo="0" devices="vehroute_59 tripinfo_59 fcd_59" vType="DEFAULT_VEHTYPE" speedFactor="0.97" vaporized=""/>