<?xml version="1.0" encoding="UTF-8"?>

<!-- generated on 2025-03-21 17:43:15 by Eclipse SUMO sumo Version 1.21.0
<sumoConfiguration xmlns:xsi="http://www.w3.org/2001/XMLSchema-instance" xsi:noNamespaceSchemaLocation="http://sumo.dlr.de/xsd/sumoConfiguration.xsd">

    <input>
        <net-file value="${STATICPATH}/joined_lanes.net.xml"/>
        <route-files value="${SIMULATIONPATH}/generatedRoutes.rou.xml"/>
        <additional-files value="${STATICPATH}/detectors.add.xml,${STATICPATH}/joined_vtypes.add.xml,${STATICPATH}/joined_tls.add.xml"/>
    </input>

    <output>
        <fcd-output value="${SIMULATIONPATH}/fcd.xml"/>
        <queue-output value="${SIMULATIONPATH}/queue.xml"/>
        <summary-output value="${SIMULATIONPATH}/summary.xml"/>
        <tripinfo-output value="${SIMULATIONPATH}/tripinfos.xml"/>
        <vehroute-output value="${SIMULATIONPATH}/vehroute.xml"/>
        <save-state.prefix value="configs\state"/>
    </output>

    <processing>
        <ignore-junction-blocker value="1"/>
        <ignore-route-errors value="true"/>
        <time-to-teleport value="-1"/>
    </processing>

    <report>
        <log value="C:/Users/fabio/Desktop/sumo_log.txt"/>
        <no-step-log value="true"/>
    </report>

    <emissions>
        <phemlight-path value="configs\./PHEMlight/"/>
    </emissions>

    <traci_server>
        <remote-port value="60133"/>
    </traci_server>

</sumoConfiguration>
-->

<tripinfos xmlns:xsi="http://www.w3.org/2001/XMLSchema-instance" xsi:noNamespaceSchemaLocation="http://sumo.dlr.de/xsd/tripinfo_file.xsd">
    <tripinfo id="0" depart="2.00" departLane="a210_0" departPos="5.10" departSpeed="0.00" departDelay="0.80" arrival="257.00" arrivalLane="b10_0" arrivalPos="224.30" arrivalSpeed="13.64" duration="255.00" routeLength="2833.68" waitingTime="33.00" waitingCount="3" stopTime="0.00" timeLoss="61.92" rerouteNo="0" devices="vehroute_0 tripinfo_0 fcd_0" vType="DEFAULT_VEHTYPE" speedFactor="1.06" vaporized=""/>
    <tripinfo id="1" depart="64.00" departLane="a210_0" departPos="5.10" departSpeed="0.00" departDelay="0.32" arrival="404.00" arrivalLane="b17[1]_0" arrivalPos="187.21" arrivalSpeed="11.92" duration="340.00" routeLength="2779.71" waitingTime="89.00" waitingCount="4" stopTime="0.00" timeLoss="123.31" rerouteNo="0" devices="vehroute_1 tripinfo_1 fcd_1" vType="DEFAULT_VEHTYPE" speedFactor="0.94" vaporized=""/>
    <tripinfo id="3" depart="154.00" departLane="a210_0" departPos="5.10" departSpeed="0.00" departDelay="0.52" arrival="405.00" arrivalLane="b17[1]_0" arrivalPos="187.21" arrivalSpeed="14.24" duration="251.00" routeLength="2779.71" waitingTime="10.00" waitingCount="4" stopTime="0.00" timeLoss="62.55" rerouteNo="0" devices="vehroute_3 tripinfo_3 fcd_3" vType="DEFAULT_VEHTYPE" speedFactor="1.08" vaporized=""/>
    <tripinfo id="2" depart="83.00" departLane="a210_0" departPos="5.10" departSpeed="0.00" departDelay="0.58" arrival="415.00" arrivalLane="b10_0" arrivalPos="224.30" arrivalSpeed="13.83" duration="332.00" routeLength="2833.68" waitingTime="95.00" waitingCount="4" stopTime="0.00" timeLoss="129.57" rerouteNo="0" devices="vehroute_2 tripinfo_2 fcd_2" vType="DEFAULT_VEHTYPE" speedFactor="1.01" vaporized=""/>
    <tripinfo id="6" depart="288.00" departLane="a210_0" departPos="5.10" departSpeed="0.00" departDelay="0.12" arrival="567.00" arrivalLane="b10_0" arrivalPos="224.30" arrivalSpeed="14.42" duration="279.00" routeLength="2830.72" waitingTime="50.00" waitingCount="3" stopTime="0.00" timeLoss="83.52" rerouteNo="0" devices="vehroute_6 tripinfo_6 fcd_6" vType="DEFAULT_VEHTYPE" speedFactor="1.05" vaporized=""/>
    <tripinfo id="4" depart="233.00" departLane="a210_0" departPos="5.10" departSpeed="0.00" departDelay="0.38" arrival="569.00" arrivalLane="b10_0" arrivalPos="224.30" arrivalSpeed="13.96" duration="336.00" routeLength="2833.68" waitingTime="100.00" waitingCount="4" stopTime="0.00" timeLoss="137.54" rerouteNo="0" devices="vehroute_4 tripinfo_4 fcd_4" vType="DEFAULT_VEHTYPE" speedFactor="1.03" vaporized=""/>
    <tripinfo id="5" depart="269.00" departLane="a210_0" departPos="5.10" departSpeed="0.00" departDelay="0.33" arrival="659.00" arrivalLane="b17[1]_0" arrivalPos="187.21" arrivalSpeed="10.47" duration="390.00" routeLength="2779.71" waitingTime="108.00" waitingCount="4" stopTime="0.00" timeLoss="144.50" rerouteNo="0" devices="vehroute_5 tripinfo_5 fcd_5" vType="DEFAULT_VEHTYPE" speedFactor="0.83" vaporized=""/>
    <tripinfo id="7" depart="439.00" departLane="a210_0" departPos="5.10" departSpeed="0.00" departDelay="0.66" arrival="776.00" arrivalLane="b17[1]_0" arrivalPos="187.21" arrivalSpeed="11.40" duration="337.00" routeLength="2779.71" waitingTime="77.00" waitingCount="3" stopTime="0.00" timeLoss="108.03" rerouteNo="0" devices="vehroute_7 tripinfo_7 fcd_7" vType="DEFAULT_VEHTYPE" speedFactor="0.89" vaporized=""/>
    <tripinfo id="8" depart="442.00" departLane="a210_0" departPos="5.10" departSpeed="0.00" departDelay="2.67" arrival="778.00" arrivalLane="b17[1]_0" arrivalPos="187.21" arrivalSpeed="11.78" duration="336.00" routeLength="2779.71" waitingTime="71.00" waitingCount="2" stopTime="0.00" timeLoss="119.07" rerouteNo="0" devices="vehroute_8 tripinfo_8 fcd_8" vType="DEFAULT_VEHTYPE" speedFactor="0.94" vaporized=""/>
    <tripinfo id="9" depart="482.00" departLane="a210_0" departPos="5.10" departSpeed="0.00" departDelay="0.31" arrival="784.00" arrivalLane="b17[1]_0" arrivalPos="187.21" arrivalSpeed="11.41" duration="302.00" routeLength="2779.71" waitingTime="22.00" waitingCount="3" stopTime="0.00" timeLoss="64.36" rerouteNo="0" devices="vehroute_9 tripinfo_9 fcd_9" vType="DEFAULT_VEHTYPE" speedFactor="0.86" vaporized=""/>
    <tripinfo id="10" depart="502.00" departLane="a210_0" departPos="5.10" departSpeed="0.00" departDelay="0.89" arrival="786.00" arrivalLane="b17[1]_0" arrivalPos="187.21" arrivalSpeed="13.75" duration="284.00" routeLength="2779.71" waitingTime="11.00" waitingCount="2" stopTime="0.00" timeLoss="97.15" rerouteNo="0" devices="vehroute_10 tripinfo_10 fcd_10" vType="DEFAULT_VEHTYPE" speedFactor="1.09" vaporized=""/>
    <tripinfo id="11" depart="509.00" departLane="a210_0" departPos="5.10" departSpeed="0.00" departDelay="0.40" arrival="788.00" arrivalLane="b17[1]_0" arrivalPos="187.21" arrivalSpeed="13.69" duration="279.00" routeLength="2779.71" waitingTime="8.00" waitingCount="1" stopTime="0.00" timeLoss="79.55" rerouteNo="0" devices="vehroute_11 tripinfo_11 fcd_11" vType="DEFAULT_VEHTYPE" speedFactor="1.03" vaporized=""/>
    <tripinfo id="12" depart="554.00" departLane="a210_0" departPos="5.10" departSpeed="0.00" departDelay="0.35" arrival="890.00" arrivalLane="b17[1]_0" arrivalPos="187.21" arrivalSpeed="14.45" duration="336.00" routeLength="2779.71" waitingTime="99.00" waitingCount="5" stopTime="0.00" timeLoss="141.53" rerouteNo="0" devices="vehroute_12 tripinfo_12 fcd_12" vType="DEFAULT_VEHTYPE" speedFactor="1.05" vaporized=""/>
    <tripinfo id="14" depart="615.00" departLane="a210_0" departPos="5.10" departSpeed="0.00" departDelay="0.61" arrival="894.00" arrivalLane="b17[1]_0" arrivalPos="187.21" arrivalSpeed="12.64" duration="279.00" routeLength="2779.71" waitingTime="37.00" waitingCount="4" stopTime="0.00" timeLoss="73.20" rerouteNo="0" devices="vehroute_14 tripinfo_14 fcd_14" vType="DEFAULT_VEHTYPE" speedFactor="0.99" vaporized=""/>
    <tripinfo id="13" depart="583.00" departLane="a210_0" departPos="5.10" departSpeed="0.00" departDelay="0.65" arrival="908.00" arrivalLane="b10_0" arrivalPos="224.30" arrivalSpeed="14.82" duration="325.00" routeLength="2833.68" waitingTime="109.00" waitingCount="4" stopTime="0.00" timeLoss="142.74" rerouteNo="0" devices="vehroute_13 tripinfo_13 fcd_13" vType="DEFAULT_VEHTYPE" speedFactor="1.12" vaporized=""/>
    <tripinfo id="15" depart="626.00" departLane="a210_0" departPos="5.10" departSpeed="0.00" departDelay="0.49" arrival="913.00" arrivalLane="b10_0" arrivalPos="224.30" arrivalSpeed="11.64" duration="287.00" routeLength="2830.72" waitingTime="41.00" waitingCount="2" stopTime="0.00" timeLoss="66.18" rerouteNo="0" devices="vehroute_15 tripinfo_15 fcd_15" vType="DEFAULT_VEHTYPE" speedFactor="0.93" vaporized=""/>
    <tripinfo id="17" depart="640.00" departLane="a210_0" departPos="5.10" departSpeed="0.00" departDelay="0.04" arrival="915.00" arrivalLane="b10_0" arrivalPos="224.30" arrivalSpeed="12.86" duration="275.00" routeLength="2833.68" waitingTime="28.00" waitingCount="2" stopTime="0.00" timeLoss="57.61" rerouteNo="0" devices="vehroute_17 tripinfo_17 fcd_17" vType="DEFAULT_VEHTYPE" speedFactor="0.94" vaporized=""/>
    <tripinfo id="16" depart="637.00" departLane="a210_0" departPos="5.10" departSpeed="0.00" departDelay="0.21" arrival="918.00" arrivalLane="b10_0" arrivalPos="224.30" arrivalSpeed="10.93" duration="281.00" routeLength="2830.72" waitingTime="19.00" waitingCount="2" stopTime="0.00" timeLoss="48.77" rerouteNo="0" devices="vehroute_16 tripinfo_16 fcd_16" vType="DEFAULT_VEHTYPE" speedFactor="0.88" vaporized=""/>
    <tripinfo id="18" depart="683.00" departLane="a210_0" departPos="5.10" departSpeed="0.00" departDelay="0.10" arrival="921.00" arrivalLane="b10_0" arrivalPos="224.30" arrivalSpeed="11.98" duration="238.00" routeLength="2833.68" waitingTime="0.00" waitingCount="0" stopTime="0.00" timeLoss="19.47" rerouteNo="0" devices="vehroute_18 tripinfo_18 fcd_18" vType="DEFAULT_VEHTYPE" speedFactor="0.94" vaporized=""/>
    <tripinfo id="19" depart="691.00" departLane="a210_0" departPos="5.10" departSpeed="0.00" departDelay="0.58" arrival="1007.00" arrivalLane="b17[1]_0" arrivalPos="187.21" arrivalSpeed="15.92" duration="316.00" routeLength="2779.71" waitingTime="100.00" waitingCount="4" stopTime="0.00" timeLoss="140.37" rerouteNo="0" devices="vehroute_19 tripinfo_19 fcd_19" vType="DEFAULT_VEHTYPE" speedFactor="1.16" vaporized=""/>
    <tripinfo id="20" depart="716.00" departLane="a210_0" departPos="5.10" departSpeed="0.00" departDelay="0.12" arrival="1013.00" arrivalLane="b17[1]_0" arrivalPos="187.21" arrivalSpeed="14.09" duration="297.00" routeLength="2779.71" waitingTime="59.00" waitingCount="3" stopTime="0.00" timeLoss="97.15" rerouteNo="0" devices="vehroute_20 tripinfo_20 fcd_20" vType="DEFAULT_VEHTYPE" speedFactor="1.02" vaporized=""/>
    <tripinfo id="22" depart="766.00" departLane="a210_0" departPos="5.10" departSpeed="0.00" departDelay="2.86" arrival="1017.00" arrivalLane="b17[1]_0" arrivalPos="187.21" arrivalSpeed="13.46" duration="251.00" routeLength="2779.71" waitingTime="8.00" waitingCount="2" stopTime="0.00" timeLoss="42.58" rerouteNo="0" devices="vehroute_22 tripinfo_22 fcd_22" vType="DEFAULT_VEHTYPE" speedFactor="0.97" vaporized=""/>
    <tripinfo id="21" depart="763.00" departLane="a210_0" departPos="5.10" departSpeed="0.00" departDelay="0.68" arrival="1076.00" arrivalLane="b10_0" arrivalPos="224.30" arrivalSpeed="13.12" duration="313.00" routeLength="2833.68" waitingTime="78.00" waitingCount="4" stopTime="0.00" timeLoss="110.82" rerouteNo="0" devices="vehroute_21 tripinfo_21 fcd_21" vType="DEFAULT_VEHTYPE" speedFactor="1.01" vaporized=""/>
    <tripinfo id="25" depart="825.00" departLane="a210_0" departPos="5.10" departSpeed="0.00" departDelay="0.98" arrival="1106.00" arrivalLane="b10_0" arrivalPos="224.30" arrivalSpeed="11.32" duration="281.00" routeLength="2833.68" waitingTime="26.00" waitingCount="1" stopTime="0.00" timeLoss="46.25" rerouteNo="0" devices="vehroute_25 tripinfo_25 fcd_25" vType="DEFAULT_VEHTYPE" speedFactor="0.87" vaporized=""/>
    <tripinfo id="26" depart="838.00" departLane="a210_0" departPos="5.10" departSpeed="0.00" departDelay="0.82" arrival="1116.00" arrivalLane="b10_0" arrivalPos="224.30" arrivalSpeed="11.99" duration="278.00" routeLength="2833.68" waitingTime="35.00" waitingCount="1" stopTime="0.00" timeLoss="54.98" rerouteNo="0" devices="vehroute_26 tripinfo_26 fcd_26" vType="DEFAULT_VEHTYPE" speedFactor="0.92" vaporized=""/>
    <tripinfo id="23" depart="795.00" departLane="a210_0" departPos="5.10" departSpeed="0.00" departDelay="0.11" arrival="1146.00" arrivalLane="b17[1]_0" arrivalPos="187.21" arrivalSpeed="12.32" duration="351.00" routeLength="2779.71" waitingTime="86.00" waitingCount="4" stopTime="0.00" timeLoss="121.90" rerouteNo="0" devices="vehroute_23 tripinfo_23 fcd_23" vType="DEFAULT_VEHTYPE" speedFactor="0.89" vaporized=""/>
    <tripinfo id="24" depart="806.00" departLane="a210_0" departPos="5.10" departSpeed="0.00" departDelay="0.99" arrival="1153.00" arrivalLane="b17[1]_0" arrivalPos="187.21" arrivalSpeed="10.71" duration="347.00" routeLength="2779.71" waitingTime="61.00" waitingCount="3" stopTime="0.00" timeLoss="98.82" rerouteNo="0" devices="vehroute_24 tripinfo_24 fcd_24" vType="DEFAULT_VEHTYPE" speedFactor="0.83" vaporized=""/>
    <tripinfo id="27" depart="841.00" departLane="a210_0" departPos="5.10" departSpeed="0.00" departDelay="3.48" arrival="1154.00" arrivalLane="b17[1]_0" arrivalPos="187.21" arrivalSpeed="12.17" duration="313.00" routeLength="2779.71" waitingTime="48.00" waitingCount="2" stopTime="0.00" timeLoss="98.67" rerouteNo="0" devices="vehroute_27 tripinfo_27 fcd_27" vType="DEFAULT_VEHTYPE" speedFactor="0.95" vaporized=""/>
    <tripinfo id="28" depart="895.00" departLane="a210_0" departPos="5.10" departSpeed="0.00" departDelay="0.11" arrival="1156.00" arrivalLane="b17[1]_0" arrivalPos="187.21" arrivalSpeed="14.80" duration="261.00" routeLength="2779.71" waitingTime="8.00" waitingCount="3" stopTime="0.00" timeLoss="81.14" rerouteNo="0" devices="vehroute_28 tripinfo_28 fcd_28" vType="DEFAULT_VEHTYPE" speedFactor="1.13" vaporized=""/>
    <tripinfo id="31" depart="1000.00" departLane="a210_0" departPos="5.10" departSpeed="0.00" departDelay="0.09" arrival="1227.00" arrivalLane="b10_0" arrivalPos="224.30" arrivalSpeed="15.99" duration="227.00" routeLength="2833.68" waitingTime="32.00" waitingCount="1" stopTime="0.00" timeLoss="49.47" rerouteNo="0" devices="vehroute_31 tripinfo_31 fcd_31" vType="DEFAULT_VEHTYPE" speedFactor="1.15" vaporized=""/>
    <tripinfo id="29" depart="956.00" departLane="a210_0" departPos="5.10" departSpeed="0.00" departDelay="0.61" arrival="1264.00" arrivalLane="b17[1]_0" arrivalPos="187.21" arrivalSpeed="12.80" duration="308.00" routeLength="2779.71" waitingTime="53.00" waitingCount="4" stopTime="0.00" timeLoss="89.62" rerouteNo="0" devices="vehroute_29 tripinfo_29 fcd_29" vType="DEFAULT_VEHTYPE" speedFactor="0.93" vaporized=""/>
    <tripinfo id="30" depart="959.00" departLane="a210_0" departPos="5.10" departSpeed="0.00" departDelay="1.94" arrival="1266.00" arrivalLane="b17[1]_0" arrivalPos="187.21" arrivalSpeed="16.17" duration="307.00" routeLength="2779.71" waitingTime="48.00" waitingCount="2" stopTime="0.00" timeLoss="133.52" rerouteNo="0" devices="vehroute_30 tripinfo_30 fcd_30" vType="DEFAULT_VEHTYPE" speedFactor="1.18" vaporized=""/>
    <tripinfo id="32" depart="1071.00" departLane="a210_0" departPos="5.10" departSpeed="0.00" departDelay="0.52" arrival="1383.00" arrivalLane="b17[1]_0" arrivalPos="187.21" arrivalSpeed="12.67" duration="312.00" routeLength="2779.71" waitingTime="70.00" waitingCount="5" stopTime="0.00" timeLoss="110.50" rerouteNo="0" devices="vehroute_32 tripinfo_32 fcd_32" vType="DEFAULT_VEHTYPE" speedFactor="1.01" vaporized=""/>
    <tripinfo id="33" depart="1130.00" departLane="a210_0" departPos="5.10" departSpeed="0.00" departDelay="0.58" arrival="1385.00" arrivalLane="b17[1]_0" arrivalPos="187.21" arrivalSpeed="15.10" duration="255.00" routeLength="2779.71" waitingTime="28.00" waitingCount="4" stopTime="0.00" timeLoss="81.24" rerouteNo="0" devices="vehroute_33 tripinfo_33 fcd_33" vType="DEFAULT_VEHTYPE" speedFactor="1.17" vaporized=""/>
    <tripinfo id="35" depart="1162.00" departLane="a210_0" departPos="5.10" departSpeed="0.00" departDelay="0.90" arrival="1388.00" arrivalLane="b17[1]_0" arrivalPos="187.21" arrivalSpeed="13.70" duration="226.00" routeLength="2779.71" waitingTime="0.00" waitingCount="0" stopTime="0.00" timeLoss="25.87" rerouteNo="0" devices="vehroute_35 tripinfo_35 fcd_35" vType="DEFAULT_VEHTYPE" speedFactor="1.02" vaporized=""/>
    <tripinfo id="34" depart="1144.00" departLane="a210_0" departPos="5.10" departSpeed="0.00" departDelay="0.89" arrival="1409.00" arrivalLane="b10_0" arrivalPos="224.30" arrivalSpeed="13.29" duration="265.00" routeLength="2833.68" waitingTime="34.00" waitingCount="2" stopTime="0.00" timeLoss="58.81" rerouteNo="0" devices="vehroute_34 tripinfo_34 fcd_34" vType="DEFAULT_VEHTYPE" speedFactor="0.99" vaporized=""/>
    <tripinfo id="36" depart="1165.00" departLane="a210_0" departPos="5.10" departSpeed="0.00" departDelay="0.40" arrival="1508.00" arrivalLane="b17[1]_0" arrivalPos="187.21" arrivalSpeed="13.10" duration="343.00" routeLength="2779.71" waitingTime="103.00" waitingCount="3" stopTime="0.00" timeLoss="134.57" rerouteNo="0" devices="vehroute_36 tripinfo_36 fcd_36" vType="DEFAULT_VEHTYPE" speedFactor="0.97" vaporized=""/>
    <tripinfo id="37" depart="1276.00" departLane="a210_0" departPos="5.10" departSpeed="0.00" departDelay="0.75" arrival="1509.00" arrivalLane="b17[1]_0" arrivalPos="187.21" arrivalSpeed="15.28" duration="233.00" routeLength="2779.71" waitingTime="9.00" waitingCount="3" stopTime="0.00" timeLoss="60.55" rerouteNo="0" devices="vehroute_37 tripinfo_37 fcd_37" vType="DEFAULT_VEHTYPE" speedFactor="1.18" vaporized=""/>
    <tripinfo id="38" depart="1314.00" departLane="a210_0" departPos="5.10" departSpeed="0.00" departDelay="0.73" arrival="1569.00" arrivalLane="b10_0" arrivalPos="224.30" arrivalSpeed="15.16" duration="255.00" routeLength="2833.68" waitingTime="46.00" waitingCount="2" stopTime="0.00" timeLoss="69.38" rerouteNo="0" devices="vehroute_38 tripinfo_38 fcd_38" vType="DEFAULT_VEHTYPE" speedFactor="1.10" vaporized=""/>
    <tripinfo id="39" depart="1338.00" departLane="a210_0" departPos="5.10" departSpeed="0.00" departDelay="0.93" arrival="1638.00" arrivalLane="b17[1]_0" arrivalPos="187.21" arrivalSpeed="11.48" duration="300.00" routeLength="2779.71" waitingTime="37.00" waitingCount="3" stopTime="0.00" timeLoss="73.26" rerouteNo="0" devices="vehroute_39 tripinfo_39 fcd_39" vType="DEFAULT_VEHTYPE" speedFactor="0.90" vaporized=""/>
    <tripinfo id="40" depart="1392.00" departLane="a210_0" departPos="5.10" departSpeed="0.00" departDelay="0.74" arrival="1640.00" arrivalLane="b17[1]_0" arrivalPos="187.21" arrivalSpeed="13.52" duration="248.00" routeLength="2779.71" waitingTime="12.00" waitingCount="1" stopTime="0.00" timeLoss="50.59" rerouteNo="0" devices="vehroute_40 tripinfo_40 fcd_40" vType="DEFAULT_VEHTYPE" speedFactor="1.03" vaporized=""/>
    <tripinfo id="41" depart="1395.00" departLane="a210_0" departPos="5.10" departSpeed="0.00" departDelay="1.52" arrival="1755.00" arrivalLane="b17[1]_0" arrivalPos="187.21" arrivalSpeed="12.48" duration="360.00" routeLength="2779.71" waitingTime="109.00" waitingCount="4" stopTime="0.00" timeLoss="147.95" rerouteNo="0" devices="vehroute_41 tripinfo_41 fcd_41" vType="DEFAULT_VEHTYPE" speedFactor="0.96" vaporized=""/>
    <tripinfo id="42" depart="1408.00" departLane="a210_0" departPos="5.10" departSpeed="0.00" departDelay="0.25" arrival="1757.00" arrivalLane="b17[1]_0" arrivalPos="187.21" arrivalSpeed="14.84" duration="349.00" routeLength="2779.71" waitingTime="100.00" waitingCount="4" stopTime="0.00" timeLoss="161.43" rerouteNo="0" devices="vehroute_42 tripinfo_42 fcd_42" vType="DEFAULT_VEHTYPE" speedFactor="1.09" vaporized=""/>
    <tripinfo id="45" depart="1507.00" departLane="a210_0" departPos="5.10" departSpeed="0.00" departDelay="0.11" arrival="1758.00" arrivalLane="b17[1]_0" arrivalPos="187.21" arrivalSpeed="14.49" duration="251.00" routeLength="2779.71" waitingTime="17.00" waitingCount="2" stopTime="0.00" timeLoss="64.04" rerouteNo="0" devices="vehroute_45 tripinfo_45 fcd_45" vType="DEFAULT_VEHTYPE" speedFactor="1.09" vaporized=""/>
    <tripinfo id="44" depart="1458.00" departLane="a210_0" departPos="5.10" departSpeed="0.00" departDelay="0.73" arrival="1760.00" arrivalLane="b10_0" arrivalPos="224.30" arrivalSpeed="13.30" duration="302.00" routeLength="2833.68" waitingTime="57.00" waitingCount="5" stopTime="0.00" timeLoss="105.58" rerouteNo="0" devices="vehroute_44 tripinfo_44 fcd_44" vType="DEFAULT_VEHTYPE" speedFactor="1.04" vaporized=""/>
    <tripinfo id="43" depart="1430.00" departLane="a210_0" departPos="5.10" departSpeed="0.00" departDelay="0.16" arrival="1761.00" arrivalLane="b10_0" arrivalPos="224.30" arrivalSpeed="13.48" duration="331.00" routeLength="2833.68" waitingTime="93.00" waitingCount="5" stopTime="0.00" timeLoss="134.19" rerouteNo="0" devices="vehroute_43 tripinfo_43 fcd_43" vType="DEFAULT_VEHTYPE" speedFactor="1.04" vaporized=""/>
    <tripinfo id="46" depart="1550.00" departLane="a210_0" departPos="5.10" departSpeed="0.00" departDelay="0.79" arrival="1912.00" arrivalLane="b10_0" arrivalPos="224.30" arrivalSpeed="13.17" duration="362.00" routeLength="2833.68" waitingTime="115.00" waitingCount="4" stopTime="0.00" timeLoss="157.03" rerouteNo="0" devices="vehroute_46 tripinfo_46 fcd_46" vType="DEFAULT_VEHTYPE" speedFactor="1.00" vaporized=""/>
    <tripinfo id="47" depart="1722.00" departLane="a210_0" departPos="5.10" departSpeed="0.00" departDelay="0.36" arrival="2007.00" arrivalLane="b17[1]_0" arrivalPos="187.21" arrivalSpeed="12.50" duration="285.00" routeLength="2779.71" waitingTime="25.00" waitingCount="3" stopTime="0.00" timeLoss="58.71" rerouteNo="0" devices="vehroute_47 tripinfo_47 fcd_47" vType="DEFAULT_VEHTYPE" speedFactor="0.90" vaporized=""/>
    <tripinfo id="48" depart="1726.00" departLane="a210_0" departPos="5.10" departSpeed="0.00" departDelay="0.32" arrival="2010.00" arrivalLane="b17[1]_0" arrivalPos="187.21" arrivalSpeed="11.97" duration="284.00" routeLength="2779.71" waitingTime="18.00" waitingCount="2" stopTime="0.00" timeLoss="50.85" rerouteNo="0" devices="vehroute_48 tripinfo_48 fcd_48" vType="DEFAULT_VEHTYPE" speedFactor="0.88" vaporized=""/>
    <tripinfo id="53" depart="1822.00" departLane="a210_0" departPos="5.10" departSpeed="0.00" departDelay="0.01" arrival="2077.00" arrivalLane="b10_0" arrivalPos="224.30" arrivalSpeed="14.60" duration="255.00" routeLength="2833.68" waitingTime="44.00" waitingCount="2" stopTime="0.00" timeLoss="68.60" rerouteNo="0" devices="vehroute_53 tripinfo_53 fcd_53" vType="DEFAULT_VEHTYPE" speedFactor="1.10" vaporized=""/>
    <tripinfo id="52" depart="1805.00" departLane="a210_0" departPos="5.10" departSpeed="0.00" departDelay="0.85" arrival="2080.00" arrivalLane="b10_0" arrivalPos="224.30" arrivalSpeed="14.06" duration="275.00" routeLength="2830.72" waitingTime="44.00" waitingCount="3" stopTime="0.00" timeLoss="74.20" rerouteNo="0" devices="vehroute_52 tripinfo_52 fcd_52" vType="DEFAULT_VEHTYPE" speedFactor="1.02" vaporized=""/>
    <tripinfo id="49" depart="1734.00" departLane="a210_0" departPos="5.10" departSpeed="0.00" departDelay="0.11" arrival="2133.00" arrivalLane="b17[1]_0" arrivalPos="187.21" arrivalSpeed="11.37" duration="399.00" routeLength="2779.71" waitingTime="118.00" waitingCount="5" stopTime="0.00" timeLoss="159.39" rerouteNo="0" devices="vehroute_49 tripinfo_49 fcd_49" vType="DEFAULT_VEHTYPE" speedFactor="0.85" vaporized=""/>
    <tripinfo id="50" depart="1745.00" departLane="a210_0" departPos="5.10" departSpeed="0.00" departDelay="0.43" arrival="2135.00" arrivalLane="b17[1]_0" arrivalPos="187.21" arrivalSpeed="10.77" duration="390.00" routeLength="2779.71" waitingTime="107.00" waitingCount="5" stopTime="0.00" timeLoss="151.13" rerouteNo="0" devices="vehroute_50 tripinfo_50 fcd_50" vType="DEFAULT_VEHTYPE" speedFactor="0.85" vaporized=""/>
    <tripinfo id="51" depart="1798.00" departLane="a210_0" departPos="5.10" departSpeed="0.00" departDelay="0.40" arrival="2137.00" arrivalLane="b17[1]_0" arrivalPos="187.21" arrivalSpeed="14.63" duration="339.00" routeLength="2779.71" waitingTime="90.00" waitingCount="4" stopTime="0.00" timeLoss="164.83" rerouteNo="0" devices="vehroute_51 tripinfo_51 fcd_51" vType="DEFAULT_VEHTYPE" speedFactor="1.17" vaporized=""/>
    <tripinfo id="54" depart="1892.00" departLane="a210_0" departPos="5.10" departSpeed="0.00" departDelay="0.18" arrival="2245.00" arrivalLane="b17[1]_0" arrivalPos="187.21" arrivalSpeed="13.06" duration="353.00" routeLength="2779.71" waitingTime="110.00" waitingCount="4" stopTime="0.00" timeLoss="150.12" rerouteNo="0" devices="vehroute_54 tripinfo_54 fcd_54" vType="DEFAULT_VEHTYPE" speedFactor="1.00" vaporized=""/>
    <tripinfo id="55" depart="1917.00" departLane="a210_0" departPos="5.10" departSpeed="0.00" departDelay="0.07" arrival="2248.00" arrivalLane="b17[1]_0" arrivalPos="187.21" arrivalSpeed="13.06" duration="331.00" routeLength="2779.71" waitingTime="85.00" waitingCount="4" stopTime="0.00" timeLoss="126.30" rerouteNo="0" devices="vehroute_55 tripinfo_55 fcd_55" vType="DEFAULT_VEHTYPE" speedFactor="1.00" vaporized=""/>
    <tripinfo id="56" depart="1944.00" departLane="a210_0" departPos="5.10" departSpeed="0.00" departDelay="0.96" arrival="2254.00" arrivalLane="b17[1]_0" arrivalPos="187.21" arrivalSpeed="12.07" duration="310.00" routeLength="2779.71" waitingTime="43.00" waitingCount="3" stopTime="0.00" timeLoss="83.44" rerouteNo="0" devices="vehroute_56 tripinfo_56 fcd_56" vType="DEFAULT_VEHTYPE" speedFactor="0.90" vaporized=""/>
    <tripinfo id="60" depart="2069.00" departLane="a210_0" departPos="5.10" departSpeed="0.00" departDelay="0.49" arrival="2341.00" arrivalLane="b10_0" arrivalPos="224.30" arrivalSpeed="13.97" duration="272.00" routeLength="2830.72" waitingTime="57.00" waitingCount="1" stopTime="0.00" timeLoss="83.48" rerouteNo="0" devices="vehroute_60 tripinfo_60 fcd_60" vType="DEFAULT_VEHTYPE" speedFactor="1.08" vaporized=""/>
    <tripinfo id="61" depart="2072.00" departLane="a210_0" departPos="5.10" departSpeed="0.00" departDelay="1.41" arrival="2343.00" arrivalLane="b10_0" arrivalPos="224.30" arrivalSpeed="14.69" duration="271.00" routeLength="2833.68" waitingTime="63.00" waitingCount="2" stopTime="0.00" timeLoss="88.17" rerouteNo="0" devices="vehroute_61 tripinfo_61 fcd_61" vType="DEFAULT_VEHTYPE" speedFactor="1.12" vaporized=""/>
    <tripinfo id="62" depart="2096.00" departLane="a210_0" departPos="5.10" departSpeed="0.00" departDelay="0.27" arrival="2349.00" arrivalLane="b10_0" arrivalPos="224.30" arrivalSpeed="13.73" duration="253.00" routeLength="2830.72" waitingTime="23.00" waitingCount="2" stopTime="0.00" timeLoss="51.37" rerouteNo="0" devices="vehroute_62 tripinfo_62 fcd_62" vType="DEFAULT_VEHTYPE" speedFactor="1.02" vaporized=""/>
    <tripinfo id="59" depart="2063.00" departLane="a210_0" departPos="5.10" departSpeed="0.00" departDelay="0.05" arrival="2353.00" arrivalLane="b10_0" arrivalPos="224.30" arrivalSpeed="12.83" duration="290.00" routeLength="2833.68" waitingTime="57.00" waitingCount="1" stopTime="0.00" timeLoss="78.92" rerouteNo="0" devices="vehroute_59 tripinfo_59 fcd_59" vType="DEFAULT_VEHTYPE" speedFactor="0.97" vaporized=""/>
    <tripinfo id="57" depart="2032.00" departLane="a210_0" departPos="5.10" departSpeed="0.00" departDelay="0.01" arrival="2361.00" arrivalLane="b17[1]_0" arrivalPos="187.21" arrivalSpeed="15.67" duration="329.00" routeLength="2779.71" waitingTime="102.00" waitingCount="5" stopTime="0.00" timeLoss="151.10" rerouteNo="0" devices="vehroute_57 tripinfo_57 fcd_57" vType="DEFAULT_VEHTYPE" speedFactor="1.14" vaporized=""/>
    <tripinfo id="58" depart="2040.00" departLane="a210_0" departPos="5.10" departSpeed="0.00" departDelay="0.33" arrival="2366.00" arrivalLane="b17[1]_0" arrivalPos="187.21" arrivalSpeed="13.13" duration="326.00" routeLength="2779.71" waitingTime="81.00" waitingCount="4" stopTime="0.00" timeLoss="126.20" rerouteNo="0" devices="vehroute_58 tripinfo_58 fcd_58" vType="DEFAULT_VEHTYPE" speedFactor="1.02" vaporized=""/>
    <tripinfo id="63" depart="2140.00" departLane="a210_0" departPos="5.10" departSpeed="0.00" departDelay="0.55" arrival="2438.00" arrivalLane="b10_0" arrivalPos="224.30" arrivalSpeed="13.39" duration="298.00" routeLength="2833.68" waitingTime="65.00" waitingCount="3" stopTime="0.00" timeLoss="90.76" rerouteNo="0" devices="vehroute_63 tripinfo_63 fcd_63" vType="DEFAULT_VEHTYPE" speedFactor="0.99" vaporized=""/>
    <tripinfo id="68" depart="2232.00" departLane="a210_0" departPos="5.10" departSpeed="0.00" departDelay="1.81" arrival="2490.00" arrivalLane="b10_0" arrivalPos="224.30" arrivalSpeed="14.08" duration="258.00" routeLength="2830.72" waitingTime="40.00" waitingCount="1" stopTime="0.00" timeLoss="61.10" rerouteNo="0" devices="vehroute_68 tripinfo_68 fcd_68" vType="DEFAULT_VEHTYPE" speedFactor="1.04" vaporized=""/>
    <tripinfo id="64" depart="2170.00" departLane="a210_0" departPos="5.10" departSpeed="0.00" departDelay="0.81" arrival="2494.00" arrivalLane="b17[1]_0" arrivalPos="187.21" arrivalSpeed="12.59" duration="324.00" routeLength="2779.71" waitingTime="69.00" waitingCount="4" stopTime="0.00" timeLoss="107.76" rerouteNo="0" devices="vehroute_64 tripinfo_64 fcd_64" vType="DEFAULT_VEHTYPE" speedFactor="0.94" vaporized=""/>
    <tripinfo id="70" depart="2266.00" departLane="a210_0" departPos="5.10" departSpeed="0.00" departDelay="0.52" arrival="2494.00" arrivalLane="b10_0" arrivalPos="224.30" arrivalSpeed="13.94" duration="228.00" routeLength="2830.72" waitingTime="7.00" waitingCount="1" stopTime="0.00" timeLoss="27.88" rerouteNo="0" devices="vehroute_70 tripinfo_70 fcd_70" vType="DEFAULT_VEHTYPE" speedFactor="1.02" vaporized=""/>
    <tripinfo id="69" depart="2261.00" departLane="a210_0" departPos="5.10" departSpeed="0.00" departDelay="0.38" arrival="2496.00" arrivalLane="b10_0" arrivalPos="224.30" arrivalSpeed="12.97" duration="235.00" routeLength="2833.68" waitingTime="15.00" waitingCount="1" stopTime="0.00" timeLoss="35.24" rerouteNo="0" devices="vehroute_69 tripinfo_69 fcd_69" vType="DEFAULT_VEHTYPE" speedFactor="1.02" vaporized=""/>