<?xml version="1.0" encoding="UTF-8"?>

<!-- generated on 2025-03-21 17:38:49 by Eclipse SUMO sumo Version 1.21.0
<sumoConfiguration xmlns:xsi="http://www.w3.org/2001/XMLSchema-instance" xsi:noNamespaceSchemaLocation="http://sumo.dlr.de/xsd/sumoConfiguration.xsd">

    <input>
        <net-file value="${STATICPATH}/joined_lanes.net.xml"/>
        <route-files value="${SIMULATIONPATH}/generatedRoutes.rou.xml"/>
        <additional-files value="${STATICPATH}/detectors.add.xml,${STATICPATH}/joined_vtypes.add.xml,${STATICPATH}/joined_tls.add.xml"/>
    </input>

    <output>
        <fcd-output value="${SIMULATIONPATH}/fcd.xml"/>
        <queue-output value="${SIMULATIONPATH}/queue.xml"/>
        <summary-output value="${SIMULATIONPATH}/summary.xml"/>
        <tripinfo-output value="${SIMULATIONPATH}/tripinfos.xml"/>
        <vehroute-output value="${SIMULATIONPATH}/vehroute.xml"/>
        <save-state.prefix value="configs\state"/>
    </output>

    <processing>
        <ignore-junction-blocker value="1"/>
        <ignore-route-errors value="true"/>
        <time-to-teleport value="-1"/>
    </processing>

    <report>
        <log value="C:/Users/fabio/Desktop/sumo_log.txt"/>
        <no-step-log value="true"/>
    </report>

    <emissions>
        <phemlight-path value="configs\./PHEMlight/"/>
    </emissions>

    <traci_server>
        <remote-port value="60121"/>
    </traci_server>

</sumoConfiguration>
-->

<tripinfos xmlns:xsi="http://www.w3.org/2001/XMLSchema-instance" xsi:noNamespaceSchemaLocation="http://sumo.dlr.de/xsd/tripinfo_file.xsd">
    <tripinfo id="0" depart="2.00" departLane="a40_0" departPos="5.10" departSpeed="0.00" departDelay="0.80" arrival="299.00" arrivalLane="b4[1][1][0]_0" arrivalPos="170.25" arrivalSpeed="13.87" duration="297.00" routeLength="2579.94" waitingTime="60.00" waitingCount="5" stopTime="0.00" timeLoss="117.96" rerouteNo="0" devices="vehroute_0 tripinfo_0 fcd_0" vType="DEFAULT_VEHTYPE" speedFactor="1.06" vaporized=""/>
    <tripinfo id="3" depart="154.00" departLane="a210_0" departPos="5.10" departSpeed="0.00" departDelay="0.52" arrival="425.00" arrivalLane="b3[1]b_0" arrivalPos="239.77" arrivalSpeed="13.99" duration="271.00" routeLength="3030.71" waitingTime="37.00" waitingCount="3" stopTime="0.00" timeLoss="68.61" rerouteNo="0" devices="vehroute_3 tripinfo_3 fcd_3" vType="DEFAULT_VEHTYPE" speedFactor="1.08" vaporized=""/>
    <tripinfo id="2" depart="83.00" departLane="a40_0" departPos="5.10" departSpeed="0.00" departDelay="0.58" arrival="428.00" arrivalLane="b4[1][1][0]_0" arrivalPos="170.25" arrivalSpeed="12.83" duration="345.00" routeLength="2579.94" waitingTime="107.00" waitingCount="5" stopTime="0.00" timeLoss="156.97" rerouteNo="0" devices="vehroute_2 tripinfo_2 fcd_2" vType="DEFAULT_VEHTYPE" speedFactor="1.01" vaporized=""/>
    <tripinfo id="1" depart="64.00" departLane="a210_0" departPos="5.10" departSpeed="0.00" departDelay="0.32" arrival="430.00" arrivalLane="b3[1]b_0" arrivalPos="239.77" arrivalSpeed="12.62" duration="366.00" routeLength="3025.46" waitingTime="96.00" waitingCount="4" stopTime="0.00" timeLoss="132.59" rerouteNo="0" devices="vehroute_1 tripinfo_1 fcd_1" vType="DEFAULT_VEHTYPE" speedFactor="0.94" vaporized=""/>
    <tripinfo id="4" depart="233.00" departLane="a40_0" departPos="5.10" departSpeed="0.00" departDelay="0.38" arrival="550.00" arrivalLane="b4[1][1][0]_0" arrivalPos="170.25" arrivalSpeed="13.89" duration="317.00" routeLength="2579.94" waitingTime="80.00" waitingCount="5" stopTime="0.00" timeLoss="132.34" rerouteNo="0" devices="vehroute_4 tripinfo_4 fcd_4" vType="DEFAULT_VEHTYPE" speedFactor="1.03" vaporized=""/>
    <tripinfo id="6" depart="288.00" departLane="a40_0" departPos="5.10" departSpeed="0.00" departDelay="0.12" arrival="689.00" arrivalLane="b4[1][1][0]_1" arrivalPos="170.25" arrivalSpeed="13.98" duration="401.00" routeLength="2567.39" waitingTime="133.00" waitingCount="5" stopTime="0.00" timeLoss="218.98" rerouteNo="0" devices="vehroute_6 tripinfo_6 fcd_6" vType="DEFAULT_VEHTYPE" speedFactor="1.05" vaporized=""/>
    <tripinfo id="5" depart="269.00" departLane="a40_0" departPos="5.10" departSpeed="0.00" departDelay="0.33" arrival="695.00" arrivalLane="b4[1][1][0]_0" arrivalPos="170.25" arrivalSpeed="10.72" duration="426.00" routeLength="2579.94" waitingTime="148.00" waitingCount="5" stopTime="0.00" timeLoss="196.25" rerouteNo="0" devices="vehroute_5 tripinfo_5 fcd_5" vType="DEFAULT_VEHTYPE" speedFactor="0.83" vaporized=""/>
    <tripinfo id="10" depart="502.00" departLane="a210_0" departPos="5.10" departSpeed="0.00" departDelay="0.89" arrival="737.00" arrivalLane="b3[1]b_0" arrivalPos="239.77" arrivalSpeed="14.55" duration="235.00" routeLength="3025.46" waitingTime="17.00" waitingCount="1" stopTime="0.00" timeLoss="34.43" rerouteNo="0" devices="vehroute_10 tripinfo_10 fcd_10" vType="DEFAULT_VEHTYPE" speedFactor="1.09" vaporized=""/>
    <tripinfo id="11" depart="509.00" departLane="a210_0" departPos="5.10" departSpeed="0.00" departDelay="0.40" arrival="741.00" arrivalLane="b3[1]b_1" arrivalPos="239.77" arrivalSpeed="13.20" duration="232.00" routeLength="3030.71" waitingTime="0.00" waitingCount="0" stopTime="0.00" timeLoss="18.42" rerouteNo="0" devices="vehroute_11 tripinfo_11 fcd_11" vType="DEFAULT_VEHTYPE" speedFactor="1.03" vaporized=""/>
    <tripinfo id="8" depart="440.00" departLane="a210_0" departPos="5.10" departSpeed="0.00" departDelay="0.67" arrival="743.00" arrivalLane="b3[1]b_0" arrivalPos="239.77" arrivalSpeed="12.46" duration="303.00" routeLength="3030.71" waitingTime="37.00" waitingCount="3" stopTime="0.00" timeLoss="68.78" rerouteNo="0" devices="vehroute_8 tripinfo_8 fcd_8" vType="DEFAULT_VEHTYPE" speedFactor="0.94" vaporized=""/>
    <tripinfo id="9" depart="482.00" departLane="a210_0" departPos="5.10" departSpeed="0.00" departDelay="0.31" arrival="807.00" arrivalLane="b3[1]b_0" arrivalPos="239.77" arrivalSpeed="11.41" duration="325.00" routeLength="3030.71" waitingTime="41.00" waitingCount="2" stopTime="0.00" timeLoss="68.74" rerouteNo="0" devices="vehroute_9 tripinfo_9 fcd_9" vType="DEFAULT_VEHTYPE" speedFactor="0.86" vaporized=""/>
    <tripinfo id="7" depart="439.00" departLane="a40_0" departPos="5.10" departSpeed="0.00" departDelay="0.66" arrival="812.00" arrivalLane="b4[1][1][0]_0" arrivalPos="170.25" arrivalSpeed="11.82" duration="373.00" routeLength="2579.94" waitingTime="108.00" waitingCount="5" stopTime="0.00" timeLoss="157.66" rerouteNo="0" devices="vehroute_7 tripinfo_7 fcd_7" vType="DEFAULT_VEHTYPE" speedFactor="0.89" vaporized=""/>
    <tripinfo id="12" depart="554.00" departLane="a210_0" departPos="5.10" departSpeed="0.00" departDelay="0.35" arrival="886.00" arrivalLane="b3[1]b_0" arrivalPos="239.77" arrivalSpeed="14.46" duration="332.00" routeLength="3030.71" waitingTime="81.00" waitingCount="4" stopTime="0.00" timeLoss="122.59" rerouteNo="0" devices="vehroute_12 tripinfo_12 fcd_12" vType="DEFAULT_VEHTYPE" speedFactor="1.05" vaporized=""/>
    <tripinfo id="14" depart="615.00" departLane="a210_0" departPos="5.10" departSpeed="0.00" departDelay="0.61" arrival="888.00" arrivalLane="b3[1]b_0" arrivalPos="239.77" arrivalSpeed="12.49" duration="273.00" routeLength="3025.46" waitingTime="27.00" waitingCount="2" stopTime="0.00" timeLoss="51.90" rerouteNo="0" devices="vehroute_14 tripinfo_14 fcd_14" vType="DEFAULT_VEHTYPE" speedFactor="0.99" vaporized=""/>
    <tripinfo id="13" depart="583.00" departLane="a40_0" departPos="5.10" departSpeed="0.00" departDelay="0.65" arrival="913.00" arrivalLane="b4[1][1][0]_0" arrivalPos="170.25" arrivalSpeed="14.45" duration="330.00" routeLength="2579.94" waitingTime="105.00" waitingCount="5" stopTime="0.00" timeLoss="160.22" rerouteNo="0" devices="vehroute_13 tripinfo_13 fcd_13" vType="DEFAULT_VEHTYPE" speedFactor="1.12" vaporized=""/>
    <tripinfo id="19" depart="691.00" departLane="a210_0" departPos="5.10" departSpeed="0.00" departDelay="0.58" arrival="1027.00" arrivalLane="b3[1]b_0" arrivalPos="239.77" arrivalSpeed="15.32" duration="336.00" routeLength="3030.71" waitingTime="105.00" waitingCount="4" stopTime="0.00" timeLoss="147.00" rerouteNo="0" devices="vehroute_19 tripinfo_19 fcd_19" vType="DEFAULT_VEHTYPE" speedFactor="1.16" vaporized=""/>
    <tripinfo id="20" depart="716.00" departLane="a210_0" departPos="5.10" departSpeed="0.00" departDelay="0.12" arrival="1031.00" arrivalLane="b3[1]b_0" arrivalPos="239.77" arrivalSpeed="13.33" duration="315.00" routeLength="3022.50" waitingTime="67.00" waitingCount="3" stopTime="0.00" timeLoss="99.80" rerouteNo="0" devices="vehroute_20 tripinfo_20 fcd_20" vType="DEFAULT_VEHTYPE" speedFactor="1.02" vaporized=""/>
    <tripinfo id="15" depart="626.00" departLane="a40_0" departPos="5.10" departSpeed="0.00" departDelay="0.49" arrival="1053.00" arrivalLane="b4[1][1][0]_0" arrivalPos="170.25" arrivalSpeed="11.84" duration="427.00" routeLength="2579.94" waitingTime="167.00" waitingCount="6" stopTime="0.00" timeLoss="220.56" rerouteNo="0" devices="vehroute_15 tripinfo_15 fcd_15" vType="DEFAULT_VEHTYPE" speedFactor="0.93" vaporized=""/>
    <tripinfo id="17" depart="640.00" departLane="a40_0" departPos="5.10" departSpeed="0.00" departDelay="0.04" arrival="1057.00" arrivalLane="b4[1][1][0]_1" arrivalPos="170.25" arrivalSpeed="12.53" duration="417.00" routeLength="2567.39" waitingTime="140.00" waitingCount="5" stopTime="0.00" timeLoss="214.68" rerouteNo="0" devices="vehroute_17 tripinfo_17 fcd_17" vType="DEFAULT_VEHTYPE" speedFactor="0.94" vaporized=""/>
    <tripinfo id="16" depart="637.00" departLane="a40_0" departPos="5.10" departSpeed="0.00" departDelay="0.21" arrival="1058.00" arrivalLane="b4[1][1][0]_0" arrivalPos="170.25" arrivalSpeed="11.14" duration="421.00" routeLength="2579.94" waitingTime="146.00" waitingCount="5" stopTime="0.00" timeLoss="203.55" rerouteNo="0" devices="vehroute_16 tripinfo_16 fcd_16" vType="DEFAULT_VEHTYPE" speedFactor="0.88" vaporized=""/>
    <tripinfo id="21" depart="763.00" departLane="a40_0" departPos="5.10" departSpeed="0.00" departDelay="0.68" arrival="1060.00" arrivalLane="b4[1][1][0]_1" arrivalPos="170.25" arrivalSpeed="13.95" duration="297.00" routeLength="2567.39" waitingTime="39.00" waitingCount="4" stopTime="0.00" timeLoss="107.13" rerouteNo="0" devices="vehroute_21 tripinfo_21 fcd_21" vType="DEFAULT_VEHTYPE" speedFactor="1.01" vaporized=""/>
    <tripinfo id="18" depart="683.00" departLane="a40_0" departPos="5.10" departSpeed="0.00" departDelay="0.10" arrival="1061.00" arrivalLane="b4[1][1][0]_0" arrivalPos="170.25" arrivalSpeed="12.27" duration="378.00" routeLength="2579.94" waitingTime="94.00" waitingCount="4" stopTime="0.00" timeLoss="173.63" rerouteNo="0" devices="vehroute_18 tripinfo_18 fcd_18" vType="DEFAULT_VEHTYPE" speedFactor="0.94" vaporized=""/>
    <tripinfo id="22" depart="766.00" departLane="a40_0" departPos="5.10" departSpeed="0.00" departDelay="2.86" arrival="1064.00" arrivalLane="b4[1][1][0]_0" arrivalPos="170.25" arrivalSpeed="13.54" duration="298.00" routeLength="2579.94" waitingTime="27.00" waitingCount="3" stopTime="0.00" timeLoss="101.79" rerouteNo="0" devices="vehroute_22 tripinfo_22 fcd_22" vType="DEFAULT_VEHTYPE" speedFactor="0.97" vaporized=""/>
    <tripinfo id="23" depart="795.00" departLane="a40_0" departPos="5.10" departSpeed="0.00" departDelay="0.11" arrival="1071.00" arrivalLane="b4[1][1][0]_0" arrivalPos="170.25" arrivalSpeed="11.72" duration="276.00" routeLength="2579.94" waitingTime="8.00" waitingCount="1" stopTime="0.00" timeLoss="60.84" rerouteNo="0" devices="vehroute_23 tripinfo_23 fcd_23" vType="DEFAULT_VEHTYPE" speedFactor="0.89" vaporized=""/>
    <tripinfo id="28" depart="895.00" departLane="a210_0" departPos="5.10" departSpeed="0.00" departDelay="0.11" arrival="1168.00" arrivalLane="b3[1]b_0" arrivalPos="239.77" arrivalSpeed="15.02" duration="273.00" routeLength="3030.71" waitingTime="43.00" waitingCount="4" stopTime="0.00" timeLoss="79.13" rerouteNo="0" devices="vehroute_28 tripinfo_28 fcd_28" vType="DEFAULT_VEHTYPE" speedFactor="1.13" vaporized=""/>
    <tripinfo id="25" depart="825.00" departLane="a40_0" departPos="5.10" departSpeed="0.00" departDelay="0.98" arrival="1186.00" arrivalLane="b4[1][1][0]_0" arrivalPos="170.25" arrivalSpeed="11.32" duration="361.00" routeLength="2567.39" waitingTime="78.00" waitingCount="5" stopTime="0.00" timeLoss="142.69" rerouteNo="0" devices="vehroute_25 tripinfo_25 fcd_25" vType="DEFAULT_VEHTYPE" speedFactor="0.87" vaporized=""/>
    <tripinfo id="24" depart="806.00" departLane="a40_0" departPos="5.10" departSpeed="0.00" departDelay="0.99" arrival="1188.00" arrivalLane="b4[1][1][0]_0" arrivalPos="170.25" arrivalSpeed="10.60" duration="382.00" routeLength="2579.94" waitingTime="99.00" waitingCount="5" stopTime="0.00" timeLoss="150.32" rerouteNo="0" devices="vehroute_24 tripinfo_24 fcd_24" vType="DEFAULT_VEHTYPE" speedFactor="0.83" vaporized=""/>
    <tripinfo id="26" depart="838.00" departLane="a40_0" departPos="5.10" departSpeed="0.00" departDelay="0.82" arrival="1190.00" arrivalLane="b4[1][1][0]_0" arrivalPos="170.25" arrivalSpeed="11.96" duration="352.00" routeLength="2579.94" waitingTime="65.00" waitingCount="3" stopTime="0.00" timeLoss="143.84" rerouteNo="0" devices="vehroute_26 tripinfo_26 fcd_26" vType="DEFAULT_VEHTYPE" speedFactor="0.92" vaporized=""/>
    <tripinfo id="27" depart="841.00" departLane="a40_0" departPos="5.10" departSpeed="0.00" departDelay="3.48" arrival="1190.00" arrivalLane="b4[1][1][0]_1" arrivalPos="170.25" arrivalSpeed="13.05" duration="349.00" routeLength="2567.39" waitingTime="62.00" waitingCount="3" stopTime="0.00" timeLoss="147.57" rerouteNo="0" devices="vehroute_27 tripinfo_27 fcd_27" vType="DEFAULT_VEHTYPE" speedFactor="0.95" vaporized=""/>
    <tripinfo id="31" depart="1000.00" departLane="a40_0" departPos="5.10" departSpeed="0.00" departDelay="0.09" arrival="1292.00" arrivalLane="b4[1][1][0]_1" arrivalPos="170.25" arrivalSpeed="15.79" duration="292.00" routeLength="2567.39" waitingTime="70.00" waitingCount="3" stopTime="0.00" timeLoss="127.70" rerouteNo="0" devices="vehroute_31 tripinfo_31 fcd_31" vType="DEFAULT_VEHTYPE" speedFactor="1.15" vaporized=""/>
    <tripinfo id="29" depart="956.00" departLane="a40_0" departPos="5.10" departSpeed="0.00" departDelay="0.61" arrival="1296.00" arrivalLane="b4[1][1][0]_0" arrivalPos="170.25" arrivalSpeed="12.22" duration="340.00" routeLength="2579.94" waitingTime="79.00" waitingCount="6" stopTime="0.00" timeLoss="135.39" rerouteNo="0" devices="vehroute_29 tripinfo_29 fcd_29" vType="DEFAULT_VEHTYPE" speedFactor="0.93" vaporized=""/>
    <tripinfo id="30" depart="958.00" departLane="a210_0" departPos="5.10" departSpeed="0.00" departDelay="0.94" arrival="1310.00" arrivalLane="b3[1]b_0" arrivalPos="239.77" arrivalSpeed="15.37" duration="352.00" routeLength="3030.71" waitingTime="115.00" waitingCount="4" stopTime="0.00" timeLoss="165.78" rerouteNo="0" devices="vehroute_30 tripinfo_30 fcd_30" vType="DEFAULT_VEHTYPE" speedFactor="1.18" vaporized=""/>
    <tripinfo id="32" depart="1071.00" departLane="a210_0" departPos="5.10" departSpeed="0.00" departDelay="0.52" arrival="1314.00" arrivalLane="b3[1]b_0" arrivalPos="239.77" arrivalSpeed="13.75" duration="243.00" routeLength="3025.46" waitingTime="3.00" waitingCount="2" stopTime="0.00" timeLoss="25.13" rerouteNo="0" devices="vehroute_32 tripinfo_32 fcd_32" vType="DEFAULT_VEHTYPE" speedFactor="1.01" vaporized=""/>
    <tripinfo id="33" depart="1130.00" departLane="a40_0" departPos="5.10" departSpeed="0.00" departDelay="0.58" arrival="1402.00" arrivalLane="b4[1][1][0]_0" arrivalPos="170.25" arrivalSpeed="16.14" duration="272.00" routeLength="2579.94" waitingTime="54.00" waitingCount="5" stopTime="0.00" timeLoss="109.21" rerouteNo="0" devices="vehroute_33 tripinfo_33 fcd_33" vType="DEFAULT_VEHTYPE" speedFactor="1.17" vaporized=""/>
    <tripinfo id="34" depart="1144.00" departLane="a40_0" departPos="5.10" departSpeed="0.00" departDelay="0.89" arrival="1412.00" arrivalLane="b4[1][1][0]_0" arrivalPos="170.25" arrivalSpeed="13.00" duration="268.00" routeLength="2579.94" waitingTime="22.00" waitingCount="4" stopTime="0.00" timeLoss="74.73" rerouteNo="0" devices="vehroute_34 tripinfo_34 fcd_34" vType="DEFAULT_VEHTYPE" speedFactor="0.99" vaporized=""/>
    <tripinfo id="35" depart="1162.00" departLane="a40_0" departPos="5.10" departSpeed="0.00" departDelay="0.90" arrival="1414.00" arrivalLane="b4[1][1][0]_1" arrivalPos="170.25" arrivalSpeed="13.74" duration="252.00" routeLength="2567.39" waitingTime="10.00" waitingCount="3" stopTime="0.00" timeLoss="65.83" rerouteNo="0" devices="vehroute_35 tripinfo_35 fcd_35" vType="DEFAULT_VEHTYPE" speedFactor="1.02" vaporized=""/>
    <tripinfo id="36" depart="1165.00" departLane="a210_0" departPos="5.10" departSpeed="0.00" departDelay="0.40" arrival="1454.00" arrivalLane="b3[1]b_0" arrivalPos="239.77" arrivalSpeed="12.53" duration="289.00" routeLength="3030.71" waitingTime="30.00" waitingCount="4" stopTime="0.00" timeLoss="63.14" rerouteNo="0" devices="vehroute_36 tripinfo_36 fcd_36" vType="DEFAULT_VEHTYPE" speedFactor="0.97" vaporized=""/>
    <tripinfo id="37" depart="1276.00" departLane="a40_0" departPos="5.10" departSpeed="0.00" departDelay="0.75" arrival="1526.00" arrivalLane="b4[1][1][0]_0" arrivalPos="170.25" arrivalSpeed="15.18" duration="250.00" routeLength="2579.94" waitingTime="32.00" waitingCount="5" stopTime="0.00" timeLoss="87.52" rerouteNo="0" devices="vehroute_37 tripinfo_37 fcd_37" vType="DEFAULT_VEHTYPE" speedFactor="1.18" vaporized=""/>
    <tripinfo id="38" depart="1314.00" departLane="a40_0" departPos="5.10" departSpeed="0.00" departDelay="0.73" arrival="1654.00" arrivalLane="b4[1][1][0]_0" arrivalPos="170.25" arrivalSpeed="14.30" duration="340.00" routeLength="2579.94" waitingTime="111.00" waitingCount="6" stopTime="0.00" timeLoss="166.39" rerouteNo="0" devices="vehroute_38 tripinfo_38 fcd_38" vType="DEFAULT_VEHTYPE" speedFactor="1.10" vaporized=""/>
    <tripinfo id="40" depart="1392.00" departLane="a210_0" departPos="5.10" departSpeed="0.00" departDelay="0.74" arrival="1660.00" arrivalLane="b3[1]b_0" arrivalPos="239.77" arrivalSpeed="13.10" duration="268.00" routeLength="3030.71" waitingTime="31.00" waitingCount="1" stopTime="0.00" timeLoss="55.02" rerouteNo="0" devices="vehroute_40 tripinfo_40 fcd_40" vType="DEFAULT_VEHTYPE" speedFactor="1.03" vaporized=""/>
    <tripinfo id="39" depart="1338.00" departLane="a40_0" departPos="5.10" departSpeed="0.00" departDelay="0.93" arrival="1665.00" arrivalLane="b4[1][1][0]_0" arrivalPos="170.25" arrivalSpeed="11.45" duration="327.00" routeLength="2579.94" waitingTime="62.00" waitingCount="5" stopTime="0.00" timeLoss="113.99" rerouteNo="0" devices="vehroute_39 tripinfo_39 fcd_39" vType="DEFAULT_VEHTYPE" speedFactor="0.90" vaporized=""/>
    <tripinfo id="41" depart="1395.00" departLane="a210_0" departPos="5.10" departSpeed="0.00" departDelay="1.52" arrival="1666.00" arrivalLane="b3[1]b_0" arrivalPos="239.77" arrivalSpeed="12.63" duration="271.00" routeLength="3030.71" waitingTime="20.00" waitingCount="1" stopTime="0.00" timeLoss="41.42" rerouteNo="0" devices="vehroute_41 tripinfo_41 fcd_41" vType="DEFAULT_VEHTYPE" speedFactor="0.96" vaporized=""/>
    <tripinfo id="42" depart="1408.00" departLane="a40_0" departPos="5.10" departSpeed="0.00" departDelay="0.25" arrival="1777.00" arrivalLane="b4[1][1][0]_0" arrivalPos="170.25" arrivalSpeed="14.54" duration="369.00" routeLength="2579.94" waitingTime="143.00" waitingCount="5" stopTime="0.00" timeLoss="194.66" rerouteNo="0" devices="vehroute_42 tripinfo_42 fcd_42" vType="DEFAULT_VEHTYPE" speedFactor="1.09" vaporized=""/>
    <tripinfo id="45" depart="1507.00" departLane="a210_0" departPos="5.10" departSpeed="0.00" departDelay="0.11" arrival="1779.00" arrivalLane="b3[1]b_0" arrivalPos="239.77" arrivalSpeed="14.19" duration="272.00" routeLength="3030.71" waitingTime="42.00" waitingCount="3" stopTime="0.00" timeLoss="70.46" rerouteNo="0" devices="vehroute_45 tripinfo_45 fcd_45" vType="DEFAULT_VEHTYPE" speedFactor="1.09" vaporized=""/>
    <tripinfo id="43" depart="1430.00" departLane="a40_0" departPos="5.10" departSpeed="0.00" departDelay="0.16" arrival="1781.00" arrivalLane="b4[1][1][0]_0" arrivalPos="170.25" arrivalSpeed="13.69" duration="351.00" routeLength="2579.94" waitingTime="109.00" waitingCount="5" stopTime="0.00" timeLoss="166.76" rerouteNo="0" devices="vehroute_43 tripinfo_43 fcd_43" vType="DEFAULT_VEHTYPE" speedFactor="1.04" vaporized=""/>
    <tripinfo id="44" depart="1458.00" departLane="a40_0" departPos="5.10" departSpeed="0.00" departDelay="0.73" arrival="1783.00" arrivalLane="b4[1][1][0]_1" arrivalPos="170.25" arrivalSpeed="14.34" duration="325.00" routeLength="2567.39" waitingTime="77.00" waitingCount="4" stopTime="0.00" timeLoss="141.75" rerouteNo="0" devices="vehroute_44 tripinfo_44 fcd_44" vType="DEFAULT_VEHTYPE" speedFactor="1.04" vaporized=""/>
    <tripinfo id="46" depart="1550.00" departLane="a40_0" departPos="5.10" departSpeed="0.00" departDelay="0.79" arrival="1905.00" arrivalLane="b4[1][1][0]_0" arrivalPos="170.25" arrivalSpeed="13.55" duration="355.00" routeLength="2579.94" waitingTime="115.00" waitingCount="5" stopTime="0.00" timeLoss="164.12" rerouteNo="0" devices="vehroute_46 tripinfo_46 fcd_46" vType="DEFAULT_VEHTYPE" speedFactor="1.00" vaporized=""/>
    <tripinfo id="47" depart="1722.00" departLane="a40_0" departPos="5.10" departSpeed="0.00" departDelay="0.36" arrival="2040.00" arrivalLane="b4[1][1][0]_0" arrivalPos="170.25" arrivalSpeed="11.68" duration="318.00" routeLength="2579.94" waitingTime="59.00" waitingCount="4" stopTime="0.00" timeLoss="105.85" rerouteNo="0" devices="vehroute_47 tripinfo_47 fcd_47" vType="DEFAULT_VEHTYPE" speedFactor="0.90" vaporized=""/>
    <tripinfo id="48" depart="1726.00" departLane="a40_0" departPos="5.10" departSpeed="0.00" departDelay="0.32" arrival="2045.00" arrivalLane="b4[1][1][0]_0" arrivalPos="170.25" arrivalSpeed="11.21" duration="319.00" routeLength="2579.94" waitingTime="50.00" waitingCount="3" stopTime="0.00" timeLoss="101.30" rerouteNo="0" devices="vehroute_48 tripinfo_48 fcd_48" vType="DEFAULT_VEHTYPE" speedFactor="0.88" vaporized=""/>
    <tripinfo id="50" depart="1745.00" departLane="a210_0" departPos="5.10" departSpeed="0.00" departDelay="0.43" arrival="2136.00" arrivalLane="b3[1]b_0" arrivalPos="239.77" arrivalSpeed="11.14" duration="391.00" routeLength="3022.50" waitingTime="105.00" waitingCount="3" stopTime="0.00" timeLoss="134.80" rerouteNo="0" devices="vehroute_50 tripinfo_50 fcd_50" vType="DEFAULT_VEHTYPE" speedFactor="0.85" vaporized=""/>
    <tripinfo id="49" depart="1734.00" departLane="a210_0" departPos="5.10" departSpeed="0.00" departDelay="0.11" arrival="2137.00" arrivalLane="b3[1]b_1" arrivalPos="239.77" arrivalSpeed="11.58" duration="403.00" routeLength="3030.71" waitingTime="110.00" waitingCount="2" stopTime="0.00" timeLoss="145.62" rerouteNo="0" devices="vehroute_49 tripinfo_49 fcd_49" vType="DEFAULT_VEHTYPE" speedFactor="0.85" vaporized=""/>
    <tripinfo id="51" depart="1798.00" departLane="a40_0" departPos="5.10" departSpeed="0.00" departDelay="0.40" arrival="2141.00" arrivalLane="b4[1][1][0]_0" arrivalPos="170.25" arrivalSpeed="15.34" duration="343.00" routeLength="2579.94" waitingTime="123.00" waitingCount="5" stopTime="0.00" timeLoss="179.99" rerouteNo="0" devices="vehroute_51 tripinfo_51 fcd_51" vType="DEFAULT_VEHTYPE" speedFactor="1.17" vaporized=""/>
    <tripinfo id="52" depart="1805.00" departLane="a40_0" departPos="5.10" departSpeed="0.00" departDelay="0.85" arrival="2149.00" arrivalLane="b4[1][1][0]_0" arrivalPos="170.25" arrivalSpeed="13.17" duration="344.00" routeLength="2579.94" waitingTime="101.00" waitingCount="4" stopTime="0.00" timeLoss="155.96" rerouteNo="0" devices="vehroute_52 tripinfo_52 fcd_52" vType="DEFAULT_VEHTYPE" speedFactor="1.02" vaporized=""/>
    <tripinfo id="53" depart="1822.00" departLane="a40_0" departPos="5.10" departSpeed="0.00" departDelay="0.01" arrival="2150.00" arrivalLane="b4[1][1][0]_1" arrivalPos="170.25" arrivalSpeed="14.77" duration="328.00" routeLength="2567.39" waitingTime="87.00" waitingCount="3" stopTime="0.00" timeLoss="153.35" rerouteNo="0" devices="vehroute_53 tripinfo_53 fcd_53" vType="DEFAULT_VEHTYPE" speedFactor="1.10" vaporized=""/>
    <tripinfo id="54" depart="1892.00" departLane="a210_0" departPos="5.10" departSpeed="0.00" departDelay="0.18" arrival="2171.00" arrivalLane="b3[1]b_0" arrivalPos="239.77" arrivalSpeed="13.03" duration="279.00" routeLength="3030.71" waitingTime="37.00" waitingCount="2" stopTime="0.00" timeLoss="60.69" rerouteNo="0" devices="vehroute_54 tripinfo_54 fcd_54" vType="DEFAULT_VEHTYPE" speedFactor="1.00" vaporized=""/>
    <tripinfo id="55" depart="1917.00" departLane="a40_0" departPos="5.10" departSpeed="0.00" departDelay="0.07" arrival="2275.00" arrivalLane="b4[1][1][0]_0" arrivalPos="170.25" arrivalSpeed="13.38" duration="358.00" routeLength="2579.94" waitingTime="113.00" waitingCount="6" stopTime="0.00" timeLoss="165.79" rerouteNo="0" devices="vehroute_55 tripinfo_55 fcd_55" vType="DEFAULT_VEHTYPE" speedFactor="1.00" vaporized=""/>
    <tripinfo id="56" depart="1944.00" departLane="a40_0" departPos="5.10" departSpeed="0.00" departDelay="0.96" arrival="2284.00" arrivalLane="b4[1][1][0]_0" arrivalPos="170.25" arrivalSpeed="12.07" duration="340.00" routeLength="2579.94" waitingTime="84.00" waitingCount="3" stopTime="0.00" timeLoss="126.56" rerouteNo="0" devices="vehroute_56 tripinfo_56 fcd_56" vType="DEFAULT_VEHTYPE" speedFactor="0.90" vaporized=""/>
    <tripinfo id="57" depart="2032.00" departLane="a40_0" departPos="5.10" departSpeed="0.00" departDelay="0.01" arrival="2389.00" arrivalLane="b4[1][1][0]_0" arrivalPos="170.25" arrivalSpeed="15.85" duration="357.00" routeLength="2579.94" waitingTime="126.00" waitingCount="6" stopTime="0.00" timeLoss="189.29" rerouteNo="0" devices="vehroute_57 tripinfo_57 fcd_57" vType="DEFAULT_VEHTYPE" speedFactor="1.14" vaporized=""/>
    <tripinfo id="58" depart="2040.00" departLane="a40_0" departPos="5.10" departSpeed="0.00" departDelay="0.33" arrival="2395.00" arrivalLane="b4[1][1][0]_0" arrivalPos="170.25" arrivalSpeed="13.85" duration="355.00" routeLength="2579.94" waitingTime="109.00" waitingCount="4" stopTime="0.00" timeLoss="168.15" rerouteNo="0" devices="vehroute_58 tripinfo_58 fcd_58" vType="DEFAULT_VEHTYPE" speedFactor="1.02" vaporized=""/>
    <tripinfo id="60" depart="2069.00" departLane="a40_0" departPos="5.10" departSpeed="0.00" departDelay="0.49" arrival="2397.00" arrivalLane="b4[1][1][0]_1" arrivalPos="170.25" arrivalSpeed="14.86" duration="328.00" routeLength="2567.39" waitingTime="95.00" waitingCount="4" stopTime="0.00" timeLoss="151.05" rerouteNo="0" devices="vehroute_60 tripinfo_60 fcd_60" vType="DEFAULT_VEHTYPE" speedFactor="1.08" vaporized=""/>
    <tripinfo id="61" depart="2072.00" departLane="a40_0" departPos="5.10" departSpeed="0.00" departDelay="1.41" arrival="2400.00" arrivalLane="b4[1][1][0]_0" arrivalPos="170.25" arrivalSpeed="14.26" duration="328.00" routeLength="2579.94" waitingTime="87.00" waitingCount="4" stopTime="0.00" timeLoss="157.47" rerouteNo="0" devices="vehroute_61 tripinfo_61 fcd_61" vType="DEFAULT_VEHTYPE" speedFactor="1.12" vaporized=""/>
    <tripinfo id="62" depart="2096.00" departLane="a40_0" departPos="5.10" departSpeed="0.00" departDelay="0.27" arrival="2404.00" arrivalLane="b4[1][1][0]_1" arrivalPos="170.25" arrivalSpeed="13.45" duration="308.00" routeLength="2567.39" waitingTime="49.00" waitingCount="4" stopTime="0.00" timeLoss="120.78" rerouteNo="0" devices="vehroute_62 tripinfo_62 fcd_62" vType="DEFAULT_VEHTYPE" speedFactor="1.02" vaporized=""/>
    <tripinfo id="63" depart="2140.00" departLane="a40_0" departPos="5.10" departSpeed="0.00" departDelay="0.55" arrival="2407.00" arrivalLane="b4[1][1][0]_0" arrivalPos="170.25" arrivalSpeed="13.59" duration="267.00" routeLength="2579.94" waitingTime="10.00" waitingCount="2" stopTime="0.00" timeLoss="73.81" rerouteNo="0" devices="vehroute_63 tripinfo_63 fcd_63" vType="DEFAULT_VEHTYPE" speedFactor="0.99" vaporized=""/>
    <tripinfo id="59" depart="2063.00" departLane="a210_0" departPos="5.10" departSpeed="0.00" departDelay="0.05" arrival="2443.00" arrivalLane="b3[1]b_0" arrivalPos="239.77" arrivalSpeed="12.88" duration="380.00" routeLength="3030.71" waitingTime="117.00" waitingCount="4" stopTime="0.00" timeLoss="154.28" rerouteNo="0" devices="vehroute_59 tripinfo_59 fcd_59" vType="DEFAULT_VEHTYPE" speedFactor="0.97" vaporized=""/>
    <tripinfo id="64" depart="2170.00" departLane="a40_0" departPos="5.10" departSpeed="0.00" departDelay="0.81" arrival="2528.00" arrivalLane="b4[1][1][0]_0" arrivalPos="170.25" arrivalSpeed="12.09" duration="358.00" routeLength="2579.94" waitingTime="105.00" waitingCount="5" stopTime="0.00" timeLoss="154.24" rerouteNo="0" devices="vehroute_64 tripinfo_64 fcd_64" vType="DEFAULT_VEHTYPE" speedFactor="0.94" vaporized=""/>
    <tripinfo id="68" depart="2231.00" departLane="a40_0" departPos="5.10" departSpeed="0.00" departDelay="0.81" arrival="2529.00" arrivalLane="b4[1][1][0]_1" arrivalPos="170.25" arrivalSpeed="13.35" duration="298.00" routeLength="2567.39" waitingTime="39.00" waitingCount="2" stopTime="0.00" timeLoss="115.30" rerouteNo="0" devices="vehroute_68 tripinfo_68 fcd_68" vType="DEFAULT_VEHTYPE" speedFactor="1.04" vaporized=""/>
    <tripinfo id="66" depart="2225.00" departLane="a40_0" departPos="5.10" departSpeed="0.00" departDelay="0.01" arrival="2532.00" arrivalLane="b4[1][1][0]_0" arrivalPos="170.25" arrivalSpeed="12.03" duration="307.00" routeLength="2579.94" waitingTime="44.00" waitingCount="3" stopTime="0.00" timeLoss="95.27" rerouteNo="0" devices="vehroute_66 tripinfo_66 fcd_66" vType="DEFAULT_VEHTYPE" speedFactor="0.91" vaporized=""/>