<?xml version="1.0" encoding="UTF-8"?>

<!-- generated on 2025-03-21 17:36:48 by Eclipse SUMO sumo Version 1.21.0
<sumoConfiguration xmlns:xsi="http://www.w3.org/2001/XMLSchema-instance" xsi:noNamespaceSchemaLocation="http://sumo.dlr.de/xsd/sumoConfiguration.xsd">

    <input>
        <net-file value="${STATICPATH}/joined_lanes.net.xml"/>
        <route-files value="${SIMULATIONPATH}/generatedRoutes.rou.xml"/>
        <additional-files value="${STATICPATH}/detectors.add.xml,${STATICPATH}/joined_vtypes.add.xml,${STATICPATH}/joined_tls.add.xml"/>
    </input>

    <output>
        <fcd-output value="${SIMULATIONPATH}/fcd.xml"/>
        <queue-output value="${SIMULATIONPATH}/queue.xml"/>
        <summary-output value="${SIMULATIONPATH}/summary.xml"/>
        <tripinfo-output value="${SIMULATIONPATH}/tripinfos.xml"/>
        <vehroute-output value="${SIMULATIONPATH}/vehroute.xml"/>
        <save-state.prefix value="configs\state"/>
    </output>

    <processing>
        <ignore-junction-blocker value="1"/>
        <ignore-route-errors value="true"/>
        <time-to-teleport value="-1"/>
    </processing>

    <report>
        <log value="C:/Users/fabio/Desktop/sumo_log.txt"/>
        <no-step-log value="true"/>
    </report>

    <emissions>
        <phemlight-path value="configs\./PHEMlight/"/>
    </emissions>

    <traci_server>
        <remote-port value="60107"/>
    </traci_server>

</sumoConfiguration>
-->

<tripinfos xmlns:xsi="http://www.w3.org/2001/XMLSchema-instance" xsi:noNamespaceSchemaLocation="http://sumo.dlr.de/xsd/tripinfo_file.xsd">
    <tripinfo id="0" depart="2.00" departLane="a201_0" departPos="5.10" departSpeed="0.00" departDelay="0.80" arrival="295.00" arrivalLane="a104_0" arrivalPos="37.84" arrivalSpeed="14.58" duration="293.00" routeLength="2949.59" waitingTime="47.00" waitingCount="1" stopTime="0.00" timeLoss="84.95" rerouteNo="0" devices="vehroute_0 tripinfo_0 fcd_0" vType="DEFAULT_VEHTYPE" speedFactor="1.06" vaporized=""/>
    <tripinfo id="3" depart="154.00" departLane="a210_0" departPos="5.10" departSpeed="0.00" departDelay="0.52" arrival="403.00" arrivalLane="b10_0" arrivalPos="224.30" arrivalSpeed="14.19" duration="249.00" routeLength="2833.68" waitingTime="34.00" waitingCount="2" stopTime="0.00" timeLoss="60.28" rerouteNo="0" devices="vehroute_3 tripinfo_3 fcd_3" vType="DEFAULT_VEHTYPE" speedFactor="1.08" vaporized=""/>
    <tripinfo id="2" depart="137.00" departLane="a210_0" departPos="5.10" departSpeed="0.00" departDelay="0.12" arrival="406.00" arrivalLane="b10_0" arrivalPos="224.30" arrivalSpeed="12.82" duration="269.00" routeLength="2833.68" waitingTime="36.00" waitingCount="3" stopTime="0.00" timeLoss="66.89" rerouteNo="0" devices="vehroute_2 tripinfo_2 fcd_2" vType="DEFAULT_VEHTYPE" speedFactor="1.01" vaporized=""/>
    <tripinfo id="4" depart="173.00" departLane="a210_0" departPos="5.10" departSpeed="0.00" departDelay="0.81" arrival="408.00" arrivalLane="b10_0" arrivalPos="224.30" arrivalSpeed="13.87" duration="235.00" routeLength="2833.68" waitingTime="19.00" waitingCount="1" stopTime="0.00" timeLoss="36.52" rerouteNo="0" devices="vehroute_4 tripinfo_4 fcd_4" vType="DEFAULT_VEHTYPE" speedFactor="1.03" vaporized=""/>
    <tripinfo id="1" depart="64.00" departLane="a201_0" departPos="5.10" departSpeed="0.00" departDelay="0.32" arrival="549.00" arrivalLane="a104_0" arrivalPos="37.84" arrivalSpeed="12.20" duration="485.00" routeLength="2949.59" waitingTime="207.00" waitingCount="3" stopTime="0.00" timeLoss="250.87" rerouteNo="0" devices="vehroute_1 tripinfo_1 fcd_1" vType="DEFAULT_VEHTYPE" speedFactor="0.94" vaporized=""/>
    <tripinfo id="7" depart="276.00" departLane="a210_0" departPos="5.10" departSpeed="0.00" departDelay="0.90" arrival="557.00" arrivalLane="b10_0" arrivalPos="224.30" arrivalSpeed="11.74" duration="281.00" routeLength="2833.68" waitingTime="29.00" waitingCount="1" stopTime="0.00" timeLoss="50.41" rerouteNo="0" devices="vehroute_7 tripinfo_7 fcd_7" vType="DEFAULT_VEHTYPE" speedFactor="0.89" vaporized=""/>
    <tripinfo id="5" depart="233.00" departLane="a210_0" departPos="5.10" departSpeed="0.00" departDelay="0.38" arrival="560.00" arrivalLane="b10_0" arrivalPos="224.30" arrivalSpeed="10.46" duration="327.00" routeLength="2833.68" waitingTime="43.00" waitingCount="3" stopTime="0.00" timeLoss="81.18" rerouteNo="0" devices="vehroute_5 tripinfo_5 fcd_5" vType="DEFAULT_VEHTYPE" speedFactor="0.83" vaporized=""/>
    <tripinfo id="6" depart="269.00" departLane="a36_0" departPos="5.10" departSpeed="0.00" departDelay="0.33" arrival="562.00" arrivalLane="b10_0" arrivalPos="224.30" arrivalSpeed="14.19" duration="293.00" routeLength="2939.16" waitingTime="47.00" waitingCount="3" stopTime="0.00" timeLoss="86.22" rerouteNo="0" devices="vehroute_6 tripinfo_6 fcd_6" vType="DEFAULT_VEHTYPE" speedFactor="1.05" vaporized=""/>
    <tripinfo id="8" depart="288.00" departLane="a201_0" departPos="5.10" departSpeed="0.00" departDelay="0.12" arrival="674.00" arrivalLane="a104_0" arrivalPos="37.84" arrivalSpeed="11.98" duration="386.00" routeLength="2949.59" waitingTime="102.00" waitingCount="3" stopTime="0.00" timeLoss="151.11" rerouteNo="0" devices="vehroute_8 tripinfo_8 fcd_8" vType="DEFAULT_VEHTYPE" speedFactor="0.94" vaporized=""/>
    <tripinfo id="10" depart="381.00" departLane="a201_0" departPos="5.10" departSpeed="0.00" departDelay="0.50" arrival="783.00" arrivalLane="a104_0" arrivalPos="37.84" arrivalSpeed="14.58" duration="402.00" routeLength="2946.63" waitingTime="153.00" waitingCount="3" stopTime="0.00" timeLoss="200.64" rerouteNo="0" devices="vehroute_10 tripinfo_10 fcd_10" vType="DEFAULT_VEHTYPE" speedFactor="1.09" vaporized=""/>
    <tripinfo id="12" depart="458.00" departLane="a201_0" departPos="5.10" departSpeed="0.00" departDelay="0.08" arrival="790.00" arrivalLane="a104_0" arrivalPos="37.84" arrivalSpeed="13.55" duration="332.00" routeLength="2949.59" waitingTime="71.00" waitingCount="3" stopTime="0.00" timeLoss="121.05" rerouteNo="0" devices="vehroute_12 tripinfo_12 fcd_12" vType="DEFAULT_VEHTYPE" speedFactor="1.05" vaporized=""/>
    <tripinfo id="9" depart="368.00" departLane="a201_0" departPos="5.10" departSpeed="0.00" departDelay="0.26" arrival="809.00" arrivalLane="a104_0" arrivalPos="37.84" arrivalSpeed="10.92" duration="441.00" routeLength="2949.59" waitingTime="139.00" waitingCount="2" stopTime="0.00" timeLoss="184.55" rerouteNo="0" devices="vehroute_9 tripinfo_9 fcd_9" vType="DEFAULT_VEHTYPE" speedFactor="0.86" vaporized=""/>
    <tripinfo id="11" depart="440.00" departLane="a201_0" departPos="5.10" departSpeed="0.00" departDelay="0.67" arrival="811.00" arrivalLane="a104_0" arrivalPos="37.84" arrivalSpeed="13.09" duration="371.00" routeLength="2949.59" waitingTime="74.00" waitingCount="2" stopTime="0.00" timeLoss="156.56" rerouteNo="0" devices="vehroute_11 tripinfo_11 fcd_11" vType="DEFAULT_VEHTYPE" speedFactor="1.03" vaporized=""/>
    <tripinfo id="15" depart="538.00" departLane="a210_0" departPos="5.10" departSpeed="0.00" departDelay="0.74" arrival="812.00" arrivalLane="b10_0" arrivalPos="224.30" arrivalSpeed="12.34" duration="274.00" routeLength="2830.72" waitingTime="33.00" waitingCount="1" stopTime="0.00" timeLoss="53.52" rerouteNo="0" devices="vehroute_15 tripinfo_15 fcd_15" vType="DEFAULT_VEHTYPE" speedFactor="0.93" vaporized=""/>
    <tripinfo id="13" depart="480.00" departLane="a201_0" departPos="5.10" departSpeed="0.00" departDelay="0.68" arrival="813.00" arrivalLane="a104_0" arrivalPos="37.84" arrivalSpeed="14.97" duration="333.00" routeLength="2946.37" waitingTime="55.00" waitingCount="1" stopTime="0.00" timeLoss="136.30" rerouteNo="0" devices="vehroute_13 tripinfo_13 fcd_13" vType="DEFAULT_VEHTYPE" speedFactor="1.12" vaporized=""/>
    <tripinfo id="14" depart="483.00" departLane="a201_0" departPos="5.10" departSpeed="0.00" departDelay="1.31" arrival="818.00" arrivalLane="a104_0" arrivalPos="37.84" arrivalSpeed="12.61" duration="335.00" routeLength="2949.59" waitingTime="54.00" waitingCount="1" stopTime="0.00" timeLoss="112.72" rerouteNo="0" devices="vehroute_14 tripinfo_14 fcd_14" vType="DEFAULT_VEHTYPE" speedFactor="0.99" vaporized=""/>
    <tripinfo id="16" depart="615.00" departLane="a201_0" departPos="5.10" departSpeed="0.00" departDelay="0.61" arrival="935.00" arrivalLane="a104_0" arrivalPos="37.84" arrivalSpeed="11.00" duration="320.00" routeLength="2949.59" waitingTime="27.00" waitingCount="1" stopTime="0.00" timeLoss="69.60" rerouteNo="0" devices="vehroute_16 tripinfo_16 fcd_16" vType="DEFAULT_VEHTYPE" speedFactor="0.88" vaporized=""/>
    <tripinfo id="17" depart="626.00" departLane="a201_0" departPos="5.10" departSpeed="0.00" departDelay="0.49" arrival="937.00" arrivalLane="a104_0" arrivalPos="37.84" arrivalSpeed="12.91" duration="311.00" routeLength="2949.59" waitingTime="27.00" waitingCount="1" stopTime="0.00" timeLoss="77.98" rerouteNo="0" devices="vehroute_17 tripinfo_17 fcd_17" vType="DEFAULT_VEHTYPE" speedFactor="0.94" vaporized=""/>
    <tripinfo id="19" depart="640.00" departLane="a201_0" departPos="5.10" departSpeed="0.00" departDelay="0.04" arrival="940.00" arrivalLane="a104_0" arrivalPos="37.84" arrivalSpeed="15.91" duration="300.00" routeLength="2946.37" waitingTime="26.00" waitingCount="1" stopTime="0.00" timeLoss="108.75" rerouteNo="0" devices="vehroute_19 tripinfo_19 fcd_19" vType="DEFAULT_VEHTYPE" speedFactor="1.16" vaporized=""/>
    <tripinfo id="18" depart="637.00" departLane="a210_0" departPos="5.10" departSpeed="0.00" departDelay="0.21" arrival="971.00" arrivalLane="b10_0" arrivalPos="224.30" arrivalSpeed="11.72" duration="334.00" routeLength="2830.72" waitingTime="81.00" waitingCount="3" stopTime="0.00" timeLoss="115.85" rerouteNo="0" devices="vehroute_18 tripinfo_18 fcd_18" vType="DEFAULT_VEHTYPE" speedFactor="0.94" vaporized=""/>
    <tripinfo id="22" depart="716.00" departLane="a210_0" departPos="5.10" departSpeed="0.00" departDelay="0.12" arrival="973.00" arrivalLane="b10_0" arrivalPos="224.30" arrivalSpeed="12.36" duration="257.00" routeLength="2833.68" waitingTime="17.00" waitingCount="2" stopTime="0.00" timeLoss="47.02" rerouteNo="0" devices="vehroute_22 tripinfo_22 fcd_22" vType="DEFAULT_VEHTYPE" speedFactor="0.97" vaporized=""/>
    <tripinfo id="20" depart="683.00" departLane="a201_0" departPos="5.10" departSpeed="0.00" departDelay="0.10" arrival="1033.00" arrivalLane="a104_0" arrivalPos="37.84" arrivalSpeed="13.09" duration="350.00" routeLength="2949.59" waitingTime="86.00" waitingCount="2" stopTime="0.00" timeLoss="134.34" rerouteNo="0" devices="vehroute_20 tripinfo_20 fcd_20" vType="DEFAULT_VEHTYPE" speedFactor="1.02" vaporized=""/>
    <tripinfo id="21" depart="691.00" departLane="a201_0" departPos="5.10" departSpeed="0.00" departDelay="0.58" arrival="1038.00" arrivalLane="a104_0" arrivalPos="37.84" arrivalSpeed="12.86" duration="347.00" routeLength="2946.63" waitingTime="79.00" waitingCount="2" stopTime="0.00" timeLoss="128.53" rerouteNo="0" devices="vehroute_21 tripinfo_21 fcd_21" vType="DEFAULT_VEHTYPE" speedFactor="1.01" vaporized=""/>
    <tripinfo id="29" depart="877.00" departLane="a210_0" departPos="5.10" departSpeed="0.00" departDelay="0.48" arrival="1160.00" arrivalLane="b10_0" arrivalPos="224.30" arrivalSpeed="11.79" duration="283.00" routeLength="2833.68" waitingTime="38.00" waitingCount="2" stopTime="0.00" timeLoss="63.04" rerouteNo="0" devices="vehroute_29 tripinfo_29 fcd_29" vType="DEFAULT_VEHTYPE" speedFactor="0.93" vaporized=""/>
    <tripinfo id="31" depart="912.00" departLane="a210_0" departPos="5.10" departSpeed="0.00" departDelay="0.99" arrival="1161.00" arrivalLane="b10_0" arrivalPos="224.30" arrivalSpeed="13.32" duration="249.00" routeLength="2830.72" waitingTime="37.00" waitingCount="2" stopTime="0.00" timeLoss="72.16" rerouteNo="0" devices="vehroute_31 tripinfo_31 fcd_31" vType="DEFAULT_VEHTYPE" speedFactor="1.15" vaporized=""/>
    <tripinfo id="23" depart="763.00" departLane="a201_0" departPos="5.10" departSpeed="0.00" departDelay="0.68" arrival="1171.00" arrivalLane="a104_0" arrivalPos="37.84" arrivalSpeed="11.88" duration="408.00" routeLength="2946.63" waitingTime="116.00" waitingCount="2" stopTime="0.00" timeLoss="160.46" rerouteNo="0" devices="vehroute_23 tripinfo_23 fcd_23" vType="DEFAULT_VEHTYPE" speedFactor="0.89" vaporized=""/>
    <tripinfo id="24" depart="795.00" departLane="a201_0" departPos="5.10" departSpeed="0.00" departDelay="0.11" arrival="1181.00" arrivalLane="a104_0" arrivalPos="37.84" arrivalSpeed="11.41" duration="386.00" routeLength="2949.59" waitingTime="79.00" waitingCount="2" stopTime="0.00" timeLoss="120.03" rerouteNo="0" devices="vehroute_24 tripinfo_24 fcd_24" vType="DEFAULT_VEHTYPE" speedFactor="0.83" vaporized=""/>
    <tripinfo id="25" depart="818.00" departLane="a201_0" departPos="5.10" departSpeed="0.00" departDelay="0.93" arrival="1185.00" arrivalLane="a104_0" arrivalPos="37.84" arrivalSpeed="11.26" duration="367.00" routeLength="2949.59" waitingTime="61.00" waitingCount="2" stopTime="0.00" timeLoss="114.62" rerouteNo="0" devices="vehroute_25 tripinfo_25 fcd_25" vType="DEFAULT_VEHTYPE" speedFactor="0.87" vaporized=""/>
    <tripinfo id="26" depart="825.00" departLane="a201_0" departPos="5.10" departSpeed="0.00" departDelay="0.98" arrival="1188.00" arrivalLane="a104_0" arrivalPos="37.84" arrivalSpeed="12.44" duration="363.00" routeLength="2949.59" waitingTime="60.00" waitingCount="2" stopTime="0.00" timeLoss="123.26" rerouteNo="0" devices="vehroute_26 tripinfo_26 fcd_26" vType="DEFAULT_VEHTYPE" speedFactor="0.92" vaporized=""/>
    <tripinfo id="28" depart="841.00" departLane="a201_0" departPos="5.10" departSpeed="0.00" departDelay="3.48" arrival="1274.00" arrivalLane="a104_0" arrivalPos="37.84" arrivalSpeed="15.67" duration="433.00" routeLength="2946.63" waitingTime="184.00" waitingCount="3" stopTime="0.00" timeLoss="238.77" rerouteNo="0" devices="vehroute_28 tripinfo_28 fcd_28" vType="DEFAULT_VEHTYPE" speedFactor="1.13" vaporized=""/>
    <tripinfo id="27" depart="838.00" departLane="a201_0" departPos="5.10" departSpeed="0.00" departDelay="0.82" arrival="1289.00" arrivalLane="a104_0" arrivalPos="37.84" arrivalSpeed="12.20" duration="451.00" routeLength="2949.59" waitingTime="171.00" waitingCount="3" stopTime="0.00" timeLoss="218.68" rerouteNo="0" devices="vehroute_27 tripinfo_27 fcd_27" vType="DEFAULT_VEHTYPE" speedFactor="0.95" vaporized=""/>
    <tripinfo id="33" depart="959.00" departLane="a201_0" departPos="5.10" departSpeed="0.00" departDelay="1.94" arrival="1292.00" arrivalLane="a104_0" arrivalPos="37.84" arrivalSpeed="15.59" duration="333.00" routeLength="2943.41" waitingTime="86.00" waitingCount="1" stopTime="0.00" timeLoss="144.21" rerouteNo="0" devices="vehroute_33 tripinfo_33 fcd_33" vType="DEFAULT_VEHTYPE" speedFactor="1.17" vaporized=""/>
    <tripinfo id="30" depart="895.00" departLane="a201_0" departPos="5.10" departSpeed="0.00" departDelay="0.11" arrival="1293.00" arrivalLane="a104_0" arrivalPos="37.84" arrivalSpeed="16.34" duration="398.00" routeLength="2949.59" waitingTime="134.00" waitingCount="3" stopTime="0.00" timeLoss="211.17" rerouteNo="0" devices="vehroute_30 tripinfo_30 fcd_30" vType="DEFAULT_VEHTYPE" speedFactor="1.18" vaporized=""/>
    <tripinfo id="32" depart="956.00" departLane="a201_0" departPos="5.10" departSpeed="0.00" departDelay="0.61" arrival="1298.00" arrivalLane="a104_0" arrivalPos="37.84" arrivalSpeed="13.19" duration="342.00" routeLength="2949.59" waitingTime="77.00" waitingCount="2" stopTime="0.00" timeLoss="122.72" rerouteNo="0" devices="vehroute_32 tripinfo_32 fcd_32" vType="DEFAULT_VEHTYPE" speedFactor="1.01" vaporized=""/>
    <tripinfo id="34" depart="962.00" departLane="a201_0" departPos="5.10" departSpeed="0.00" departDelay="4.33" arrival="1302.00" arrivalLane="a104_0" arrivalPos="37.84" arrivalSpeed="13.22" duration="340.00" routeLength="2949.59" waitingTime="66.00" waitingCount="3" stopTime="0.00" timeLoss="117.62" rerouteNo="0" devices="vehroute_34 tripinfo_34 fcd_34" vType="DEFAULT_VEHTYPE" speedFactor="0.99" vaporized=""/>
    <tripinfo id="37" depart="1071.00" departLane="a210_0" departPos="5.10" departSpeed="0.00" departDelay="0.52" arrival="1303.00" arrivalLane="b10_0" arrivalPos="224.30" arrivalSpeed="15.21" duration="232.00" routeLength="2833.68" waitingTime="35.00" waitingCount="2" stopTime="0.00" timeLoss="58.53" rerouteNo="0" devices="vehroute_37 tripinfo_37 fcd_37" vType="DEFAULT_VEHTYPE" speedFactor="1.18" vaporized=""/>
    <tripinfo id="36" depart="1006.00" departLane="a210_0" departPos="5.10" departSpeed="0.00" departDelay="0.28" arrival="1308.00" arrivalLane="b10_0" arrivalPos="224.30" arrivalSpeed="12.49" duration="302.00" routeLength="2833.68" waitingTime="60.00" waitingCount="2" stopTime="0.00" timeLoss="91.53" rerouteNo="0" devices="vehroute_36 tripinfo_36 fcd_36" vType="DEFAULT_VEHTYPE" speedFactor="0.97" vaporized=""/>
    <tripinfo id="35" depart="1000.00" departLane="a201_0" departPos="5.10" departSpeed="0.00" departDelay="0.09" arrival="1404.00" arrivalLane="a104_0" arrivalPos="37.84" arrivalSpeed="13.57" duration="404.00" routeLength="2949.59" waitingTime="137.00" waitingCount="3" stopTime="0.00" timeLoss="188.10" rerouteNo="0" devices="vehroute_35 tripinfo_35 fcd_35" vType="DEFAULT_VEHTYPE" speedFactor="1.02" vaporized=""/>
    <tripinfo id="38" depart="1165.00" departLane="a201_0" departPos="5.10" departSpeed="0.00" departDelay="0.40" arrival="1520.00" arrivalLane="a104_0" arrivalPos="37.84" arrivalSpeed="15.06" duration="355.00" routeLength="2946.63" waitingTime="103.00" waitingCount="3" stopTime="0.00" timeLoss="155.71" rerouteNo="0" devices="vehroute_38 tripinfo_38 fcd_38" vType="DEFAULT_VEHTYPE" speedFactor="1.10" vaporized=""/>
    <tripinfo id="39" depart="1276.00" departLane="a210_0" departPos="5.10" departSpeed="0.00" departDelay="0.75" arrival="1553.00" arrivalLane="b10_0" arrivalPos="224.30" arrivalSpeed="11.34" duration="277.00" routeLength="2830.72" waitingTime="25.00" waitingCount="1" stopTime="0.00" timeLoss="50.41" rerouteNo="0" devices="vehroute_39 tripinfo_39 fcd_39" vType="DEFAULT_VEHTYPE" speedFactor="0.90" vaporized=""/>
    <tripinfo id="40" depart="1314.00" departLane="a201_0" departPos="5.10" departSpeed="0.00" departDelay="0.73" arrival="1647.00" arrivalLane="a104_0" arrivalPos="37.84" arrivalSpeed="13.04" duration="333.00" routeLength="2949.59" waitingTime="76.00" waitingCount="2" stopTime="0.00" timeLoss="119.69" rerouteNo="0" devices="vehroute_40 tripinfo_40 fcd_40" vType="DEFAULT_VEHTYPE" speedFactor="1.03" vaporized=""/>
    <tripinfo id="41" depart="1338.00" departLane="a201_0" departPos="5.10" departSpeed="0.00" departDelay="0.93" arrival="1662.00" arrivalLane="a104_0" arrivalPos="37.84" arrivalSpeed="12.59" duration="324.00" routeLength="2946.63" waitingTime="49.00" waitingCount="2" stopTime="0.00" timeLoss="93.44" rerouteNo="0" devices="vehroute_41 tripinfo_41 fcd_41" vType="DEFAULT_VEHTYPE" speedFactor="0.96" vaporized=""/>
    <tripinfo id="42" depart="1391.00" departLane="a210_0" departPos="5.10" departSpeed="0.00" departDelay="0.14" arrival="1703.00" arrivalLane="b10_0" arrivalPos="224.30" arrivalSpeed="14.46" duration="312.00" routeLength="2830.72" waitingTime="86.00" waitingCount="2" stopTime="0.00" timeLoss="124.20" rerouteNo="0" devices="vehroute_42 tripinfo_42 fcd_42" vType="DEFAULT_VEHTYPE" speedFactor="1.09" vaporized=""/>
    <tripinfo id="46" depart="1458.00" departLane="a210_0" departPos="5.10" departSpeed="0.00" departDelay="0.73" arrival="1706.00" arrivalLane="b10_0" arrivalPos="224.30" arrivalSpeed="13.24" duration="248.00" routeLength="2833.68" waitingTime="12.00" waitingCount="2" stopTime="0.00" timeLoss="42.61" rerouteNo="0" devices="vehroute_46 tripinfo_46 fcd_46" vType="DEFAULT_VEHTYPE" speedFactor="1.00" vaporized=""/>
    <tripinfo id="45" depart="1413.00" departLane="a201_0" departPos="5.10" departSpeed="0.00" departDelay="0.38" arrival="1766.00" arrivalLane="a104_0" arrivalPos="37.84" arrivalSpeed="14.71" duration="353.00" routeLength="2946.63" waitingTime="100.00" waitingCount="3" stopTime="0.00" timeLoss="150.91" rerouteNo="0" devices="vehroute_45 tripinfo_45 fcd_45" vType="DEFAULT_VEHTYPE" speedFactor="1.09" vaporized=""/>
    <tripinfo id="44" depart="1395.00" departLane="a201_0" departPos="5.10" departSpeed="0.00" departDelay="1.52" arrival="1773.00" arrivalLane="a104_0" arrivalPos="37.84" arrivalSpeed="13.43" duration="378.00" routeLength="2949.59" waitingTime="112.00" waitingCount="3" stopTime="0.00" timeLoss="166.31" rerouteNo="0" devices="vehroute_44 tripinfo_44 fcd_44" vType="DEFAULT_VEHTYPE" speedFactor="1.04" vaporized=""/>
    <tripinfo id="43" depart="1392.00" departLane="a201_0" departPos="5.10" departSpeed="0.00" departDelay="0.74" arrival="1777.00" arrivalLane="a104_0" arrivalPos="37.84" arrivalSpeed="13.54" duration="385.00" routeLength="2949.59" waitingTime="112.00" waitingCount="3" stopTime="0.00" timeLoss="172.42" rerouteNo="0" devices="vehroute_43 tripinfo_43 fcd_43" vType="DEFAULT_VEHTYPE" speedFactor="1.04" vaporized=""/>
    <tripinfo id="47" depart="1508.00" departLane="a201_0" departPos="5.10" departSpeed="0.00" departDelay="1.11" arrival="1790.00" arrivalLane="a104_0" arrivalPos="37.84" arrivalSpeed="12.31" duration="282.00" routeLength="2946.63" waitingTime="0.00" waitingCount="0" stopTime="0.00" timeLoss="36.37" rerouteNo="0" devices="vehroute_47 tripinfo_47 fcd_47" vType="DEFAULT_VEHTYPE" speedFactor="0.90" vaporized=""/>
    <tripinfo id="48" depart="1550.00" departLane="a201_0" departPos="5.10" departSpeed="0.00" departDelay="0.79" arrival="2034.00" arrivalLane="a104_0" arrivalPos="37.84" arrivalSpeed="11.51" duration="484.00" routeLength="2949.59" waitingTime="186.00" waitingCount="3" stopTime="0.00" timeLoss="231.18" rerouteNo="0" devices="vehroute_48 tripinfo_48 fcd_48" vType="DEFAULT_VEHTYPE" speedFactor="0.88" vaporized=""/>
    <tripinfo id="50" depart="1621.00" departLane="a201_0" departPos="5.10" departSpeed="0.00" departDelay="0.55" arrival="2041.00" arrivalLane="a104_0" arrivalPos="37.84" arrivalSpeed="11.65" duration="420.00" routeLength="2946.63" waitingTime="116.00" waitingCount="2" stopTime="0.00" timeLoss="161.83" rerouteNo="0" devices="vehroute_50 tripinfo_50 fcd_50" vType="DEFAULT_VEHTYPE" speedFactor="0.85" vaporized=""/>
    <tripinfo id="51" depart="1623.00" departLane="a36_0" departPos="5.10" departSpeed="0.00" departDelay="0.77" arrival="2073.00" arrivalLane="b10_0" arrivalPos="224.30" arrivalSpeed="15.98" duration="450.00" routeLength="2939.16" waitingTime="173.00" waitingCount="6" stopTime="0.00" timeLoss="264.96" rerouteNo="0" devices="vehroute_51 tripinfo_51 fcd_51" vType="DEFAULT_VEHTYPE" speedFactor="1.17" vaporized=""/>
    <tripinfo id="49" depart="1596.00" departLane="a36_0" departPos="5.10" departSpeed="0.00" departDelay="0.22" arrival="2080.00" arrivalLane="b10_0" arrivalPos="224.30" arrivalSpeed="11.70" duration="484.00" routeLength="2939.16" waitingTime="173.00" waitingCount="6" stopTime="0.00" timeLoss="229.59" rerouteNo="0" devices="vehroute_49 tripinfo_49 fcd_49" vType="DEFAULT_VEHTYPE" speedFactor="0.85" vaporized=""/>
    <tripinfo id="56" depart="1822.00" departLane="a210_0" departPos="5.10" departSpeed="0.00" departDelay="0.01" arrival="2117.00" arrivalLane="b10_0" arrivalPos="224.30" arrivalSpeed="11.24" duration="295.00" routeLength="2830.72" waitingTime="33.00" waitingCount="2" stopTime="0.00" timeLoss="67.85" rerouteNo="0" devices="vehroute_56 tripinfo_56 fcd_56" vType="DEFAULT_VEHTYPE" speedFactor="0.90" vaporized=""/>
    <tripinfo id="52" depart="1734.00" departLane="a201_0" departPos="5.10" departSpeed="0.00" departDelay="0.11" arrival="2143.00" arrivalLane="a104_0" arrivalPos="37.84" arrivalSpeed="13.86" duration="409.00" routeLength="2946.63" waitingTime="139.00" waitingCount="4" stopTime="0.00" timeLoss="191.37" rerouteNo="0" devices="vehroute_52 tripinfo_52 fcd_52" vType="DEFAULT_VEHTYPE" speedFactor="1.02" vaporized=""/>
    <tripinfo id="53" depart="1745.00" departLane="a201_0" departPos="5.10" departSpeed="0.00" departDelay="0.43" arrival="2146.00" arrivalLane="a104_0" arrivalPos="37.84" arrivalSpeed="14.87" duration="401.00" routeLength="2943.41" waitingTime="126.00" waitingCount="4" stopTime="0.00" timeLoss="198.79" rerouteNo="0" devices="vehroute_53 tripinfo_53 fcd_53" vType="DEFAULT_VEHTYPE" speedFactor="1.10" vaporized=""/>
    <tripinfo id="54" depart="1784.00" departLane="a201_0" departPos="5.10" departSpeed="0.00" departDelay="0.37" arrival="2150.00" arrivalLane="a104_0" arrivalPos="37.84" arrivalSpeed="13.76" duration="366.00" routeLength="2949.59" waitingTime="96.00" waitingCount="2" stopTime="0.00" timeLoss="146.47" rerouteNo="0" devices="vehroute_54 tripinfo_54 fcd_54" vType="DEFAULT_VEHTYPE" speedFactor="1.00" vaporized=""/>
    <tripinfo id="55" depart="1798.00" departLane="a201_0" departPos="5.10" departSpeed="0.00" departDelay="0.40" arrival="2153.00" arrivalLane="a104_0" arrivalPos="37.84" arrivalSpeed="13.42" duration="355.00" routeLength="2946.37" waitingTime="92.00" waitingCount="1" stopTime="0.00" timeLoss="133.76" rerouteNo="0" devices="vehroute_55 tripinfo_55 fcd_55" vType="DEFAULT_VEHTYPE" speedFactor="1.00" vaporized=""/>
    <tripinfo id="57" depart="1892.00" departLane="a201_0" departPos="5.10" departSpeed="0.00" departDelay="0.18" arrival="2256.00" arrivalLane="a104_0" arrivalPos="37.84" arrivalSpeed="14.74" duration="364.00" routeLength="2949.59" waitingTime="113.00" waitingCount="3" stopTime="0.00" timeLoss="171.94" rerouteNo="0" devices="vehroute_57 tripinfo_57 fcd_57" vType="DEFAULT_VEHTYPE" speedFactor="1.14" vaporized=""/>
    <tripinfo id="58" depart="2032.00" departLane="a201_0" departPos="5.10" departSpeed="0.00" departDelay="0.01" arrival="2387.00" arrivalLane="a104_0" arrivalPos="37.84" arrivalSpeed="13.22" duration="355.00" routeLength="2949.59" waitingTime="93.00" waitingCount="3" stopTime="0.00" timeLoss="140.00" rerouteNo="0" devices="vehroute_58 tripinfo_58 fcd_58" vType="DEFAULT_VEHTYPE" speedFactor="1.02" vaporized=""/>
    <tripinfo id="59" depart="2097.00" departLane="a36_0" departPos="5.10" departSpeed="0.00" departDelay="1.27" arrival="2474.00" arrivalLane="b10_0" arrivalPos="224.30" arrivalSpeed="12.22" duration="377.00" routeLength="2939.16" waitingTime="94.00" waitingCount="7" stopTime="0.00" timeLoss="154.11" rerouteNo="0" devices="vehroute_59 tripinfo_59 fcd_59" vType="DEFAULT_VEHTYPE" speedFactor="0.97" vaporized=""/>
    <tripinfo id="63" depart="2225.00" departLane="a210_0" departPos="5.10" departSpeed="0.00" departDelay="0.01" arrival="2476.00" arrivalLane="b10_0" arrivalPos="224.30" arrivalSpeed="13.16" duration="251.00" routeLength="2833.68" waitingTime="17.00" waitingCount="2" stopTime="0.00" timeLoss="43.70" rerouteNo="0" devices="vehroute_63 tripinfo_63 fcd_63" vType="DEFAULT_VEHTYPE" speedFactor="0.99" vaporized=""/>
    <tripinfo id="60" depart="2140.00" departLane="a201_0" departPos="5.10" departSpeed="0.00" departDelay="0.55" arrival="2505.00" arrivalLane="a104_0" arrivalPos="37.84" arrivalSpeed="14.87" duration="365.00" routeLength="2949.59" waitingTime="111.00" waitingCount="3" stopTime="0.00" timeLoss="162.01" rerouteNo="0" devices="vehroute_60 tripinfo_60 fcd_60" vType="DEFAULT_VEHTYPE" speedFactor="1.08" vaporized=""/>
    <tripinfo id="61" depart="2170.00" departLane="a201_0" departPos="5.10" departSpeed="0.00" departDelay="0.81" arrival="2509.00" arrivalLane="a104_0" arrivalPos="37.84" arrivalSpeed="15.00" duration="339.00" routeLength="2946.63" waitingTime="81.00" waitingCount="3" stopTime="0.00" timeLoss="141.44" rerouteNo="0" devices="vehroute_61 tripinfo_61 fcd_61" vType="DEFAULT_VEHTYPE" speedFactor="1.12" vaporized=""/>
    <tripinfo id="62" depart="2211.00" departLane="a201_0" departPos="5.10" departSpeed="0.00" departDelay="0.31" arrival="2515.00" arrivalLane="a104_0" arrivalPos="37.84" arrivalSpeed="13.71" duration="304.00" routeLength="2949.59" waitingTime="40.00" waitingCount="2" stopTime="0.00" timeLoss="86.58" rerouteNo="0" devices="vehroute_62 tripinfo_62 fcd_62" vType="DEFAULT_VEHTYPE" speedFactor="1.02" vaporized=""/>
    <tripinfo id="65" depart="2231.00" departLane="a201_0" departPos="5.10" departSpeed="0.00" departDelay="0.81" arrival="2532.00" arrivalLane="a104_0" arrivalPos="37.84" arrivalSpeed="11.57" duration="301.00" routeLength="2949.59" waitingTime="12.00" waitingCount="1" stopTime="0.00" timeLoss="50.59" rerouteNo="0" devices="vehroute_65 tripinfo_65 fcd_65" vType="DEFAULT_VEHTYPE" speedFactor="0.88" vaporized=""/>
    <tripinfo id="64" depart="2229.00" departLane="a36_0" departPos="5.10" departSpeed="0.00" departDelay="0.79" arrival="2601.00" arrivalLane="b10_0" arrivalPos="224.30" arrivalSpeed="11.93" duration="372.00" routeLength="2939.16" waitingTime="83.00" waitingCount="6" stopTime="0.00" timeLoss="140.76" rerouteNo="0" devices="vehroute_64 tripinfo_64 fcd_64" vType="DEFAULT_VEHTYPE" speedFactor="0.94" vaporized=""/>
    <tripinfo id="67" depart="2280.00" departLane="a210_0" departPos="5.10" departSpeed="0.00" departDelay="0.52" arrival="2603.00" arrivalLane="b10_0" arrivalPos="224.30" arrivalSpeed="12.58" duration="323.00" routeLength="2833.68" waitingTime="62.00" waitingCount="4" stopTime="0.00" timeLoss="99.60" rerouteNo="0" devices="vehroute_67 tripinfo_67 fcd_67" vType="DEFAULT_VEHTYPE" speedFactor="0.91" vaporized=""/>
    <tripinfo id="69" depart="2347.00" departLane="a210_0" departPos="5.10" departSpeed="0.00" departDelay="0.84" arrival="2605.00" arrivalLane="b10_0" arrivalPos="224.30" arrivalSpeed="13.32" duration="258.00" routeLength="2833.68" waitingTime="24.00" waitingCount="2" stopTime="0.00" timeLoss="57.70" rerouteNo="0" devices="vehroute_69 tripinfo_69 fcd_69" vType="DEFAULT_VEHTYPE" speedFactor="1.02" vaporized=""/>