<?xml version="1.0" encoding="UTF-8"?>

<!-- generated on 2025-03-21 17:36:48 by Eclipse SUMO sumo Version 1.21.0
<sumoConfiguration xmlns:xsi="http://www.w3.org/2001/XMLSchema-instance" xsi:noNamespaceSchemaLocation="http://sumo.dlr.de/xsd/sumoConfiguration.xsd">

    <input>
        <net-file value="${STATICPATH}/joined_lanes.net.xml"/>
        <route-files value="${SIMULATIONPATH}/generatedRoutes.rou.xml"/>
        <additional-files value="${STATICPATH}/detectors.add.xml,${STATICPATH}/joined_vtypes.add.xml,${STATICPATH}/joined_tls.add.xml"/>
    </input>

    <output>
        <fcd-output value="${SIMULATIONPATH}/fcd.xml"/>
        <queue-output value="${SIMULATIONPATH}/queue.xml"/>
        <summary-output value="${SIMULATIONPATH}/summary.xml"/>
        <tripinfo-output value="${SIMULATIONPATH}/tripinfos.xml"/>
        <vehroute-output value="${SIMULATIONPATH}/vehroute.xml"/>
        <save-state.prefix value="configs\state"/>
    </output>

    <processing>
        <ignore-junction-blocker value="1"/>
        <ignore-route-errors value="true"/>
        <time-to-teleport value="-1"/>
    </processing>

    <report>
        <log value="C:/Users/fabio/Desktop/sumo_log.txt"/>
        <no-step-log value="true"/>
    </report>

    <emissions>
        <phemlight-path value="configs\./PHEMlight/"/>
    </emissions>

    <traci_server>
        <remote-port value="60107"/>
    </traci_server>

</sumoConfiguration>
-->

<routes xmlns:xsi="http://www.w3.org/2001/XMLSchema-instance" xsi:noNamespaceSchemaLocation="http://sumo.dlr.de/xsd/routes_file.xsd">
    <vehicle id="0" depart="2.00" arrival="295.00">
        <route edges="a201 a201c a204a[0] a124 b12 b50[0] b50[1] b50[1]a a181 a18 a17 a71 a67 a80 a127 a77[1][0] a77ab a77bc a77cd a53cd a82 a51 a219 a218 a38 a33 a10 a13 a104"/>
    </vehicle>

    <vehicle id="3" depart="154.00" arrival="403.00">
        <route edges="a210 a43[0] a43[1] a201 a201c a204a[0] a124 b12 b56[0] b56[1][0] b56[1][1] b5[1][0]+66 b5[1][1][1] b8 b10"/>
    </vehicle>

    <vehicle id="2" depart="137.00" arrival="406.00">
        <route edges="a210 a43[0] a43[1] a201 a201c a204a[0] a124 b12 b56[0] b56[1][0] b56[1][1] b5[1][0]+66 b5[1][1][1] b8 b10"/>
    </vehicle>

    <vehicle id="4" depart="173.00" arrival="408.00">
        <route edges="a210 a43[0] a43[1] a201 a201c a204a[0] a124 b12 b56[0] b56[1][0] b56[1][1] b5[1][0]+66 b5[1][1][1] b8 b10"/>
    </vehicle>

    <vehicle id="1" depart="64.00" arrival="549.00">
        <route edges="a201 a201c a204a[0] a124 b12 b50[0] b50[1] b50[1]a a181 a18 a17 a71 a67 a80 a127 a77[1][0] a77ab a77bc a77cd a53cd a82 a51 a219 a218 a38 a33 a10 a13 a104"/>
    </vehicle>

    <vehicle id="7" depart="276.00" arrival="557.00">
        <route edges="a210 a43[0] a43[1] a201 a201c a204a[0] a124 b12 b56[0] b56[1][0] b56[1][1] b5[1][0]+66 b5[1][1][1] b8 b10"/>
    </vehicle>

    <vehicle id="5" depart="233.00" arrival="560.00">
        <route edges="a210 a43[0] a43[1] a201 a201c a204a[0] a124 b12 b56[0] b56[1][0] b56[1][1] b5[1][0]+66 b5[1][1][1] b8 b10"/>
    </vehicle>

    <vehicle id="6" depart="269.00" arrival="562.00">
        <route edges="a36 a40 a153 a87[0] a20001+87[1][0] a87[1][1] am90 am91 a88 a187 a191 a17 a71 b38[0] b38[0]a b38[1][0] b38[1][1] b38[1][1]a b56[1][0] b56[1][1] b5[1][0]+66 b5[1][1][1] b8 b10"/>
    </vehicle>

    <vehicle id="8" depart="288.00" arrival="674.00">
        <route edges="a201 a201c a204a[0] a124 b12 b50[0] b50[1] b50[1]a a181 a18 a17 a71 a67 a80 a127 a77[1][0] a77ab a77bc a77cd a53cd a82 a51 a219 a218 a38 a33 a10 a13 a104"/>
    </vehicle>

    <vehicle id="10" depart="381.00" arrival="783.00">
        <route edges="a201 a201c a204a[0] a124 b12 b50[0] b50[1] b50[1]a a181 a18 a17 a71 a67 a80 a127 a77[1][0] a77ab a77bc a77cd a53cd a82 a51 a219 a218 a38 a33 a10 a13 a104"/>
    </vehicle>

    <vehicle id="12" depart="458.00" arrival="790.00">
        <route edges="a201 a201c a204a[0] a124 b12 b50[0] b50[1] b50[1]a a181 a18 a17 a71 a67 a80 a127 a77[1][0] a77ab a77bc a77cd a53cd a82 a51 a219 a218 a38 a33 a10 a13 a104"/>
    </vehicle>

    <vehicle id="9" depart="368.00" arrival="809.00">
        <route edges="a201 a201c a204a[0] a124 b12 b50[0] b50[1] b50[1]a a181 a18 a17 a71 a67 a80 a127 a77[1][0] a77ab a77bc a77cd a53cd a82 a51 a219 a218 a38 a33 a10 a13 a104"/>
    </vehicle>

    <vehicle id="11" depart="440.00" arrival="811.00">
        <route edges="a201 a201c a204a[0] a124 b12 b50[0] b50[1] b50[1]a a181 a18 a17 a71 a67 a80 a127 a77[1][0] a77ab a77bc a77cd a53cd a82 a51 a219 a218 a38 a33 a10 a13 a104"/>
    </vehicle>

    <vehicle id="15" depart="538.00" arrival="812.00">
        <route edges="a210 a43[0] a43[1] a201 a201c a204a[0] a124 b12 b56[0] b56[1][0] b56[1][1] b5[1][0]+66 b5[1][1][1] b8 b10"/>
    </vehicle>

    <vehicle id="13" depart="480.00" arrival="813.00">
        <route edges="a201 a201c a204a[0] a124 b12 b50[0] b50[1] b50[1]a a181 a18 a17 a71 a67 a80 a127 a77[1][0] a77ab a77bc a77cd a53cd a82 a51 a219 a218 a38 a33 a10 a13 a104"/>
    </vehicle>

    <vehicle id="14" depart="483.00" arrival="818.00">
        <route edges="a201 a201c a204a[0] a124 b12 b50[0] b50[1] b50[1]a a181 a18 a17 a71 a67 a80 a127 a77[1][0] a77ab a77bc a77cd a53cd a82 a51 a219 a218 a38 a33 a10 a13 a104"/>
    </vehicle>

    <vehicle id="16" depart="615.00" arrival="935.00">
        <route edges="a201 a201c a204a[0] a124 b12 b50[0] b50[1] b50[1]a a181 a18 a17 a71 a67 a80 a127 a77[1][0] a77ab a77bc a77cd a53cd a82 a51 a219 a218 a38 a33 a10 a13 a104"/>
    </vehicle>

    <vehicle id="17" depart="626.00" arrival="937.00">
        <route edges="a201 a201c a204a[0] a124 b12 b50[0] b50[1] b50[1]a a181 a18 a17 a71 a67 a80 a127 a77[1][0] a77ab a77bc a77cd a53cd a82 a51 a219 a218 a38 a33 a10 a13 a104"/>
    </vehicle>

    <vehicle id="19" depart="640.00" arrival="940.00">
        <route edges="a201 a201c a204a[0] a124 b12 b50[0] b50[1] b50[1]a a181 a18 a17 a71 a67 a80 a127 a77[1][0] a77ab a77bc a77cd a53cd a82 a51 a219 a218 a38 a33 a10 a13 a104"/>
    </vehicle>

    <vehicle id="18" depart="637.00" arrival="971.00">
        <route edges="a210 a43[0] a43[1] a201 a201c a204a[0] a124 b12 b56[0] b56[1][0] b56[1][1] b5[1][0]+66 b5[1][1][1] b8 b10"/>
    </vehicle>

    <vehicle id="22" depart="716.00" arrival="973.00">
        <route edges="a210 a43[0] a43[1] a201 a201c a204a[0] a124 b12 b56[0] b56[1][0] b56[1][1] b5[1][0]+66 b5[1][1][1] b8 b10"/>
    </vehicle>

    <vehicle id="20" depart="683.00" arrival="1033.00">
        <route edges="a201 a201c a204a[0] a124 b12 b50[0] b50[1] b50[1]a a181 a18 a17 a71 a67 a80 a127 a77[1][0] a77ab a77bc a77cd a53cd a82 a51 a219 a218 a38 a33 a10 a13 a104"/>
    </vehicle>

    <vehicle id="21" depart="691.00" arrival="1038.00">
        <route edges="a201 a201c a204a[0] a124 b12 b50[0] b50[1] b50[1]a a181 a18 a17 a71 a67 a80 a127 a77[1][0] a77ab a77bc a77cd a53cd a82 a51 a219 a218 a38 a33 a10 a13 a104"/>
    </vehicle>

    <vehicle id="29" depart="877.00" arrival="1160.00">
        <route edges="a210 a43[0] a43[1] a201 a201c a204a[0] a124 b12 b56[0] b56[1][0] b56[1][1] b5[1][0]+66 b5[1][1][1] b8 b10"/>
    </vehicle>

    <vehicle id="31" depart="912.00" arrival="1161.00">
        <route edges="a210 a43[0] a43[1] a201 a201c a204a[0] a124 b12 b56[0] b56[1][0] b56[1][1] b5[1][0]+66 b5[1][1][1] b8 b10"/>
    </vehicle>

    <vehicle id="23" depart="763.00" arrival="1171.00">
        <route edges="a201 a201c a204a[0] a124 b12 b50[0] b50[1] b50[1]a a181 a18 a17 a71 a67 a80 a127 a77[1][0] a77ab a77bc a77cd a53cd a82 a51 a219 a218 a38 a33 a10 a13 a104"/>
    </vehicle>

    <vehicle id="24" depart="795.00" arrival="1181.00">
        <route edges="a201 a201c a204a[0] a124 b12 b50[0] b50[1] b50[1]a a181 a18 a17 a71 a67 a80 a127 a77[1][0] a77ab a77bc a77cd a53cd a82 a51 a219 a218 a38 a33 a10 a13 a104"/>
    </vehicle>

    <vehicle id="25" depart="818.00" arrival="1185.00">
        <route edges="a201 a201c a204a[0] a124 b12 b50[0] b50[1] b50[1]a a181 a18 a17 a71 a67 a80 a127 a77[1][0] a77ab a77bc a77cd a53cd a82 a51 a219 a218 a38 a33 a10 a13 a104"/>
    </vehicle>

    <vehicle id="26" depart="825.00" arrival="1188.00">
        <route edges="a201 a201c a204a[0] a124 b12 b50[0] b50[1] b50[1]a a181 a18 a17 a71 a67 a80 a127 a77[1][0] a77ab a77bc a77cd a53cd a82 a51 a219 a218 a38 a33 a10 a13 a104"/>
    </vehicle>

    <vehicle id="28" depart="841.00" arrival="1274.00">
        <route edges="a201 a201c a204a[0] a124 b12 b50[0] b50[1] b50[1]a a181 a18 a17 a71 a67 a80 a127 a77[1][0] a77ab a77bc a77cd a53cd a82 a51 a219 a218 a38 a33 a10 a13 a104"/>
    </vehicle>

    <vehicle id="27" depart="838.00" arrival="1289.00">
        <route edges="a201 a201c a204a[0] a124 b12 b50[0] b50[1] b50[1]a a181 a18 a17 a71 a67 a80 a127 a77[1][0] a77ab a77bc a77cd a53cd a82 a51 a219 a218 a38 a33 a10 a13 a104"/>
    </vehicle>

    <vehicle id="33" depart="959.00" arrival="1292.00">
        <route edges="a201 a201c a204a[0] a124 b12 b50[0] b50[1] b50[1]a a181 a18 a17 a71 a67 a80 a127 a77[1][0] a77ab a77bc a77cd a53cd a82 a51 a219 a218 a38 a33 a10 a13 a104"/>
    </vehicle>

    <vehicle id="30" depart="895.00" arrival="1293.00">
        <route edges="a201 a201c a204a[0] a124 b12 b50[0] b50[1] b50[1]a a181 a18 a17 a71 a67 a80 a127 a77[1][0] a77ab a77bc a77cd a53cd a82 a51 a219 a218 a38 a33 a10 a13 a104"/>
    </vehicle>

    <vehicle id="32" depart="956.00" arrival="1298.00">
        <route edges="a201 a201c a204a[0] a124 b12 b50[0] b50[1] b50[1]a a181 a18 a17 a71 a67 a80 a127 a77[1][0] a77ab a77bc a77cd a53cd a82 a51 a219 a218 a38 a33 a10 a13 a104"/>
    </vehicle>

    <vehicle id="34" depart="962.00" arrival="1302.00">
        <route edges="a201 a201c a204a[0] a124 b12 b50[0] b50[1] b50[1]a a181 a18 a17 a71 a67 a80 a127 a77[1][0] a77ab a77bc a77cd a53cd a82 a51 a219 a218 a38 a33 a10 a13 a104"/>
    </vehicle>

    <vehicle id="37" depart="1071.00" arrival="1303.00">
        <route edges="a210 a43[0] a43[1] a201 a201c a204a[0] a124 b12 b56[0] b56[1][0] b56[1][1] b5[1][0]+66 b5[1][1][1] b8 b10"/>
    </vehicle>

    <vehicle id="36" depart="1006.00" arrival="1308.00">
        <route edges="a210 a43[0] a43[1] a201 a201c a204a[0] a124 b12 b56[0] b56[1][0] b56[1][1] b5[1][0]+66 b5[1][1][1] b8 b10"/>
    </vehicle>

    <vehicle id="35" depart="1000.00" arrival="1404.00">
        <route edges="a201 a201c a204a[0] a124 b12 b50[0] b50[1] b50[1]a a181 a18 a17 a71 a67 a80 a127 a77[1][0] a77ab a77bc a77cd a53cd a82 a51 a219 a218 a38 a33 a10 a13 a104"/>
    </vehicle>

    <vehicle id="38" depart="1165.00" arrival="1520.00">
        <route edges="a201 a201c a204a[0] a124 b12 b50[0] b50[1] b50[1]a a181 a18 a17 a71 a67 a80 a127 a77[1][0] a77ab a77bc a77cd a53cd a82 a51 a219 a218 a38 a33 a10 a13 a104"/>
    </vehicle>

    <vehicle id="39" depart="1276.00" arrival="1553.00">
        <route edges="a210 a43[0] a43[1] a201 a201c a204a[0] a124 b12 b56[0] b56[1][0] b56[1][1] b5[1][0]+66 b5[1][1][1] b8 b10"/>
    </vehicle>

    <vehicle id="40" depart="1314.00" arrival="1647.00">
        <route edges="a201 a201c a204a[0] a124 b12 b50[0] b50[1] b50[1]a a181 a18 a17 a71 a67 a80 a127 a77[1][0] a77ab a77bc a77cd a53cd a82 a51 a219 a218 a38 a33 a10 a13 a104"/>
    </vehicle>

    <vehicle id="41" depart="1338.00" arrival="1662.00">
        <route edges="a201 a201c a204a[0] a124 b12 b50[0] b50[1] b50[1]a a181 a18 a17 a71 a67 a80 a127 a77[1][0] a77ab a77bc a77cd a53cd a82 a51 a219 a218 a38 a33 a10 a13 a104"/>
    </vehicle>

    <vehicle id="42" depart="1391.00" arrival="1703.00">
        <route edges="a210 a43[0] a43[1] a201 a201c a204a[0] a124 b12 b56[0] b56[1][0] b56[1][1] b5[1][0]+66 b5[1][1][1] b8 b10"/>
    </vehicle>

    <vehicle id="46" depart="1458.00" arrival="1706.00">
        <route edges="a210 a43[0] a43[1] a201 a201c a204a[0] a124 b12 b56[0] b56[1][0] b56[1][1] b5[1][0]+66 b5[1][1][1] b8 b10"/>
    </vehicle>

    <vehicle id="45" depart="1413.00" arrival="1766.00">
        <route edges="a201 a201c a204a[0] a124 b12 b50[0] b50[1] b50[1]a a181 a18 a17 a71 a67 a80 a127 a77[1][0] a77ab a77bc a77cd a53cd a82 a51 a219 a218 a38 a33 a10 a13 a104"/>
    </vehicle>

    <vehicle id="44" depart="1395.00" arrival="1773.00">
        <route edges="a201 a201c a204a[0] a124 b12 b50[0] b50[1] b50[1]a a181 a18 a17 a71 a67 a80 a127 a77[1][0] a77ab a77bc a77cd a53cd a82 a51 a219 a218 a38 a33 a10 a13 a104"/>
    </vehicle>

    <vehicle id="43" depart="1392.00" arrival="1777.00">
        <route edges="a201 a201c a204a[0] a124 b12 b50[0] b50[1] b50[1]a a181 a18 a17 a71 a67 a80 a127 a77[1][0] a77ab a77bc a77cd a53cd a82 a51 a219 a218 a38 a33 a10 a13 a104"/>
    </vehicle>

    <vehicle id="47" depart="1508.00" arrival="1790.00">
        <route edges="a201 a201c a204a[0] a124 b12 b50[0] b50[1] b50[1]a a181 a18 a17 a71 a67 a80 a127 a77[1][0] a77ab a77bc a77cd a53cd a82 a51 a219 a218 a38 a33 a10 a13 a104"/>
    </vehicle>

    <vehicle id="48" depart="1550.00" arrival="2034.00">
        <route edges="a201 a201c a204a[0] a124 b12 b50[0] b50[1] b50[1]a a181 a18 a17 a71 a67 a80 a127 a77[1][0] a77ab a77bc a77cd a53cd a82 a51 a219 a218 a38 a33 a10 a13 a104"/>
    </vehicle>

    <vehicle id="50" depart="1621.00" arrival="2041.00">
        <route edges="a201 a201c a204a[0] a124 b12 b50[0] b50[1] b50[1]a a181 a18 a17 a71 a67 a80 a127 a77[1][0] a77ab a77bc a77cd a53cd a82 a51 a219 a218 a38 a33 a10 a13 a104"/>
    </vehicle>

    <vehicle id="51" depart="1623.00" arrival="2073.00">
        <route edges="a36 a40 a153 a87[0] a20001+87[1][0] a87[1][1] am90 am91 a88 a187 a191 a17 a71 b38[0] b38[0]a b38[1][0] b38[1][1] b38[1][1]a b56[1][0] b56[1][1] b5[1][0]+66 b5[1][1][1] b8 b10"/>
    </vehicle>

    <vehicle id="49" depart="1596.00" arrival="2080.00">
        <route edges="a36 a40 a153 a87[0] a20001+87[1][0] a87[1][1] am90 am91 a88 a187 a191 a17 a71 b38[0] b38[0]a b38[1][0] b38[1][1] b38[1][1]a b56[1][0] b56[1][1] b5[1][0]+66 b5[1][1][1] b8 b10"/>
    </vehicle>

    <vehicle id="56" depart="1822.00" arrival="2117.00">
        <route edges="a210 a43[0] a43[1] a201 a201c a204a[0] a124 b12 b56[0] b56[1][0] b56[1][1] b5[1][0]+66 b5[1][1][1] b8 b10"/>
    </vehicle>

    <vehicle id="52" depart="1734.00" arrival="2143.00">
        <route edges="a201 a201c a204a[0] a124 b12 b50[0] b50[1] b50[1]a a181 a18 a17 a71 a67 a80 a127 a77[1][0] a77ab a77bc a77cd a53cd a82 a51 a219 a218 a38 a33 a10 a13 a104"/>
    </vehicle>

    <vehicle id="53" depart="1745.00" arrival="2146.00">
        <route edges="a201 a201c a204a[0] a124 b12 b50[0] b50[1] b50[1]a a181 a18 a17 a71 a67 a80 a127 a77[1][0] a77ab a77bc a77cd a53cd a82 a51 a219 a218 a38 a33 a10 a13 a104"/>
    </vehicle>

    <vehicle id="54" depart="1784.00" arrival="2150.00">
        <route edges="a201 a201c a204a[0] a124 b12 b50[0] b50[1] b50[1]a a181 a18 a17 a71 a67 a80 a127 a77[1][0] a77ab a77bc a77cd a53cd a82 a51 a219 a218 a38 a33 a10 a13 a104"/>
    </vehicle>

    <vehicle id="55" depart="1798.00" arrival="2153.00">
        <route edges="a201 a201c a204a[0] a124 b12 b50[0] b50[1] b50[1]a a181 a18 a17 a71 a67 a80 a127 a77[1][0] a77ab a77bc a77cd a53cd a82 a51 a219 a218 a38 a33 a10 a13 a104"/>
    </vehicle>

    <vehicle id="57" depart="1892.00" arrival="2256.00">
        <route edges="a201 a201c a204a[0] a124 b12 b50[0] b50[1] b50[1]a a181 a18 a17 a71 a67 a80 a127 a77[1][0] a77ab a77bc a77cd a53cd a82 a51 a219 a218 a38 a33 a10 a13 a104"/>
    </vehicle>

    <vehicle id="58" depart="2032.00" arrival="2387.00">
        <route edges="a201 a201c a204a[0] a124 b12 b50[0] b50[1] b50[1]a a181 a18 a17 a71 a67 a80 a127 a77[1][0] a77ab a77bc a77cd a53cd a82 a51 a219 a218 a38 a33 a10 a13 a104"/>
    </vehicle>

    <vehicle id="59" depart="2097.00" arrival="2474.00">
        <route edges="a36 a40 a153 a87[0] a20001+87[1][0] a87[1][1] am90 am91 a88 a187 a191 a17 a71 b38[0] b38[0]a b38[1][0] b38[1][1] b38[1][1]a b56[1][0] b56[1][1] b5[1][0]+66 b5[1][1][1] b8 b10"/>
    </vehicle>

    <vehicle id="63" depart="2225.00" arrival="2476.00">
        <route edges="a210 a43[0] a43[1] a201 a201c a204a[0] a124 b12 b56[0] b56[1][0] b56[1][1] b5[1][0]+66 b5[1][1][1] b8 b10"/>
    </vehicle>

    <vehicle id="60" depart="2140.00" arrival="2505.00">
        <route edges="a201 a201c a204a[0] a124 b12 b50[0] b50[1] b50[1]a a181 a18 a17 a71 a67 a80 a127 a77[1][0] a77ab a77bc a77cd a53cd a82 a51 a219 a218 a38 a33 a10 a13 a104"/>
    </vehicle>

    <vehicle id="61" depart="2170.00" arrival="2509.00">
        <route edges="a201 a201c a204a[0] a124 b12 b50[0] b50[1] b50[1]a a181 a18 a17 a71 a67 a80 a127 a77[1][0] a77ab a77bc a77cd a53cd a82 a51 a219 a218 a38 a33 a10 a13 a104"/>
    </vehicle>

    <vehicle id="62" depart="2211.00" arrival="2515.00">
        <route edges="a201 a201c a204a[0] a124 b12 b50[0] b50[1] b50[1]a a181 a18 a17 a71 a67 a80 a127 a77[1][0] a77ab a77bc a77cd a53cd a82 a51 a219 a218 a38 a33 a10 a13 a104"/>
    </vehicle>

    <vehicle id="65" depart="2231.00" arrival="2532.00">
        <route edges="a201 a201c a204a[0] a124 b12 b50[0] b50[1] b50[1]a a181 a18 a17 a71 a67 a80 a127 a77[1][0] a77ab a77bc a77cd a53cd a82 a51 a219 a218 a38 a33 a10 a13 a104"/>
    </vehicle>

    <vehicle id="64" depart="2229.00" arrival="2601.00">
        <route edges="a36 a40 a153 a87[0] a20001+87[1][0] a87[1][1] am90 am91 a88 a187 a191 a17 a71 b38[0] b38[0]a b38[1][0] b38[1][1] b38[1][1]a b56[1][0] b56[1][1] b5[1][0]+66 b5[1][1][1] b8 b10"/>
    </vehicle>

    <vehicle id="67" depart="2280.00" arrival="2603.00">
        <route edges="a210 a43[0] a43[1] a201 a201c a204a[0] a124 b12 b56[0] b56[1][0] b56[1][1] b5[1][0]+66 b5[1][1][1] b8 b10"/>
    </vehicle>

    <vehicle id="69" depart="2347.00" arrival="2605.00">
        <route edges="a210 a43[0] a43[1] a201 a201c a204a[0] a124 b12 b56[0] b56[1][0] b56[1][1] b5[1][0]+66 b5[1][1][1] b8 b10"/>
    </vehicle>

    <vehicle id="66" depart="2266.00" arrival="2607.00">
        <route edges="a210 a43[0] a43[1] a201 a201c a204a[0] a124 b12 b56[0] b56[1][0] b56[1][1] b5[1][0]+66 b5[1][1][1] b8 b10"/>
    </vehicle>

    <vehicle id="70" depart="2355.00" arrival="2609.00">
        <route edges="a210 a43[0] a43[1] a201 a201c a204a[0] a124 b12 b56[0] b56[1][0] b56[1][1] b5[1][0]+66 b5[1][1][1] b8 b10"/>
    </vehicle>

    <vehicle id="68" depart="2326.00" arrival="2634.00">
        <route edges="a201 a201c a204a[0] a124 b12 b50[0] b50[1] b50[1]a a181 a18 a17 a71 a67 a80 a127 a77[1][0] a77ab a77bc a77cd a53cd a82 a51 a219 a218 a38 a33 a10 a13 a104"/>
    </vehicle>

    <vehicle id="72" depart="2372.00" arrival="2653.00">
        <route edges="a201 a201c a204a[0] a124 b12 b50[0] b50[1] b50[1]a a181 a18 a17 a71 a67 a80 a127 a77[1][0] a77ab a77bc a77cd a53cd a82 a51 a219 a218 a38 a33 a10 a13 a104"/>
    </vehicle>

    <vehicle id="71" depart="2361.00" arrival="2762.00">
        <route edges="a201 a201c a204a[0] a124 b12 b50[0] b50[1] b50[1]a a181 a18 a17 a71 a67 a80 a127 a77[1][0] a77ab a77bc a77cd a53cd a82 a51 a219 a218 a38 a33 a10 a13 a104"/>
    </vehicle>

    <vehicle id="74" depart="2490.00" arrival="2776.00">
        <route edges="a210 a43[0] a43[1] a201 a201c a204a[0] a124 b12 b56[0] b56[1][0] b56[1][1] b5[1][0]+66 b5[1][1][1] b8 b10"/>
    </vehicle>

    <vehicle id="73" depart="2452.00" arrival="2877.00">
        <route edges="a201 a201c a204a[0] a124 b12 b50[0] b50[1] b50[1]a a181 a18 a17 a71 a67 a80 a127 a77[1][0] a77ab a77bc a77cd a53cd a82 a51 a219 a218 a38 a33 a10 a13 a104"/>
    </vehicle>

    <vehicle id="75" depart="2608.00" arrival="3005.00">
        <route edges="a201 a201c a204a[0] a124 b12 b50[0] b50[1] b50[1]a a181 a18 a17 a71 a67 a80 a127 a77[1][0] a77ab a77bc a77cd a53cd a82 a51 a219 a218 a38 a33 a10 a13 a104"/>
    </vehicle>

    <vehicle id="76" depart="2687.00" arrival="3008.00">
        <route edges="a201 a201c a204a[0] a124 b12 b50[0] b50[1] b50[1]a a181 a18 a17 a71 a67 a80 a127 a77[1][0] a77ab a77bc a77cd a53cd a82 a51 a219 a218 a38 a33 a10 a13 a104"/>
    </vehicle>

    <vehicle id="77" depart="2716.00" arrival="3021.00">
        <route edges="a210 a43[0] a43[1] a201 a201c a204a[0] a124 b12 b56[0] b56[1][0] b56[1][1] b5[1][0]+66 b5[1][1][1] b8 b10"/>
    </vehicle>

    <vehicle id="79" depart="2813.00" arrival="3033.00">
        <route edges="a210 a43[0] a43[1] a201 a201c a204a[0] a124 b12 b56[0] b56[1][0] b56[1][1] b5[1][0]+66 b5[1][1][1] b8 b10"/>
    </vehicle>

    <vehicle id="81" depart="2846.00" arrival="3112.00">
        <route edges="a210 a43[0] a43[1] a201 a201c a204a[0] a124 b12 b56[0] b56[1][0] b56[1][1] b5[1][0]+66 b5[1][1][1] b8 b10"/>
    </vehicle>

    <vehicle id="78" depart="2797.00" arrival="3128.00">
        <route edges="a201 a201c a204a[0] a124 b12 b50[0] b50[1] b50[1]a a181 a18 a17 a71 a67 a80 a127 a77[1][0] a77ab a77bc a77cd a53cd a82 a51 a219 a218 a38 a33 a10 a13 a104"/>
    </vehicle>

    <vehicle id="80" depart="2818.00" arrival="3131.00">
        <route edges="a201 a201c a204a[0] a124 b12 b50[0] b50[1] b50[1]a a181 a18 a17 a71 a67 a80 a127 a77[1][0] a77ab a77bc a77cd a53cd a82 a51 a219 a218 a38 a33 a10 a13 a104"/>
    </vehicle>

    <vehicle id="82" depart="2852.00" arrival="3164.00">
        <route edges="a210 a43[0] a43[1] a201 a201c a204a[0] a124 b12 b56[0] b56[1][0] b56[1][1] b5[1][0]+66 b5[1][1][1] b8 b10"/>
    </vehicle>

    <vehicle id="83" depart="2912.00" arrival="3168.00">
        <route edges="a210 a43[0] a43[1] a201 a201c a204a[0] a124 b12 b56[0] b56[1][0] b56[1][1] b5[1][0]+66 b5[1][1][1] b8 b10"/>
    </vehicle>

    <vehicle id="84" depart="2919.00" arrival="3241.00">
        <route edges="a201 a201c a204a[0] a124 b12 b50[0] b50[1] b50[1]a a181 a18 a17 a71 a67 a80 a127 a77[1][0] a77ab a77bc a77cd a53cd a82 a51 a219 a218 a38 a33 a10 a13 a104"/>
    </vehicle>

    <vehicle id="85" depart="2971.00" arrival="3254.00">
        <route edges="a201 a201c a204a[0] a124 b12 b50[0] b50[1] b50[1]a a181 a18 a17 a71 a67 a80 a127 a77[1][0] a77ab a77bc a77cd a53cd a82 a51 a219 a218 a38 a33 a10 a13 a104"/>
    </vehicle>

    <vehicle id="89" depart="3095.00" arrival="3318.00">
        <route edges="a210 a43[0] a43[1] a201 a201c a204a[0] a124 b12 b56[0] b56[1][0] b56[1][1] b5[1][0]+66 b5[1][1][1] b8 b10"/>
    </vehicle>

    <vehicle id="88" depart="3066.00" arrival="3374.00">
        <route edges="a201 a201c a204a[0] a124 b12 b50[0] b50[1] b50[1]a a181 a18 a17 a71 a67 a80 a127 a77[1][0] a77ab a77bc a77cd a53cd a82 a51 a219 a218 a38 a33 a10 a13 a104"/>
    </vehicle>

    <vehicle id="90" depart="3113.00" arrival="3378.00">
        <route edges="a201 a201c a204a[0] a124 b12 b50[0] b50[1] b50[1]a a181 a18 a17 a71 a67 a80 a127 a77[1][0] a77ab a77bc a77cd a53cd a82 a51 a219 a218 a38 a33 a10 a13 a104"/>
    </vehicle>

    <vehicle id="87" depart="3053.00" arrival="3447.00">
        <route edges="a36 a40 a153 a87[0] a20001+87[1][0] a87[1][1] am90 am91 a88 a187 a191 a17 a71 b38[0] b38[0]a b38[1][0] b38[1][1] b38[1][1]a b56[1][0] b56[1][1] b5[1][0]+66 b5[1][1][1] b8 b10"/>
    </vehicle>

    <vehicle id="86" depart="3004.00" arrival="3450.00">
        <route edges="a36 a40 a153 a87[0] a20001+87[1][0] a87[1][1] am90 am91 a88 a187 a191 a17 a71 b38[0] b38[0]a b38[1][0] b38[1][1] b38[1][1]a b56[1][0] b56[1][1] b5[1][0]+66 b5[1][1][1] b8 b10"/>
    </vehicle>

    <vehicle id="93" depart="3202.00" arrival="3505.00">
        <route edges="a201 a201c a204a[0] a124 b12 b50[0] b50[1] b50[1]a a181 a18 a17 a71 a67 a80 a127 a77[1][0] a77ab a77bc a77cd a53cd a82 a51 a219 a218 a38 a33 a10 a13 a104"/>
    </vehicle>

    <vehicle id="91" depart="3154.00" arrival="3588.00">
        <route edges="a36 a40 a153 a87[0] a20001+87[1][0] a87[1][1] am90 am91 a88 a187 a191 a17 a71 b38[0] b38[0]a b38[1][0] b38[1][1] b38[1][1]a b56[1][0] b56[1][1] b5[1][0]+66 b5[1][1][1] b8 b10"/>
    </vehicle>

    <vehicle id="92" depart="3177.00" arrival="3591.00">
        <route edges="a36 a40 a153 a87[0] a20001+87[1][0] a87[1][1] am90 am91 a88 a187 a191 a17 a71 b38[0] b38[0]a b38[1][0] b38[1][1] b38[1][1]a b56[1][0] b56[1][1] b5[1][0]+66 b5[1][1][1] b8 b10"/>
    </vehicle>

    <vehicle id="94" depart="3350.00" arrival="3736.00">
        <route edges="a201 a201c a204a[0] a124 b12 b50[0] b50[1] b50[1]a a181 a18 a17 a71 a67 a80 a127 a77[1][0] a77ab a77bc a77cd a53cd a82 a51 a219 a218 a38 a33 a10 a13 a104"/>
    </vehicle>

    <vehicle id="95" depart="3372.00" arrival="3740.00">
        <route edges="a201 a201c a204a[0] a124 b12 b50[0] b50[1] b50[1]a a181 a18 a17 a71 a67 a80 a127 a77[1][0] a77ab a77bc a77cd a53cd a82 a51 a219 a218 a38 a33 a10 a13 a104"/>
    </vehicle>

    <vehicle id="96" depart="3395.00" arrival="3746.00">
        <route edges="a201 a201c a204a[0] a124 b12 b50[0] b50[1] b50[1]a a181 a18 a17 a71 a67 a80 a127 a77[1][0] a77ab a77bc a77cd a53cd a82 a51 a219 a218 a38 a33 a10 a13 a104"/>
    </vehicle>

    <vehicle id="98" depart="3470.00" arrival="3858.00">
        <route edges="a201 a201c a204a[0] a124 b12 b50[0] b50[1] b50[1]a a181 a18 a17 a71 a67 a80 a127 a77[1][0] a77ab a77bc a77cd a53cd a82 a51 a219 a218 a38 a33 a10 a13 a104"/>
    </vehicle>

    <vehicle id="97" depart="3443.00" arrival="3877.00">
        <route edges="a201 a201c a204a[0] a124 b12 b50[0] b50[1] b50[1]a a181 a18 a17 a71 a67 a80 a127 a77[1][0] a77ab a77bc a77cd a53cd a82 a51 a219 a218 a38 a33 a10 a13 a104"/>
    </vehicle>

    <vehicle id="99" depart="3558.00" arrival="3920.00">
        <route edges="a210 a43[0] a43[1] a201 a201c a204a[0] a124 b12 b56[0] b56[1][0] b56[1][1] b5[1][0]+66 b5[1][1][1] b8 b10"/>
    </vehicle>

</routes>
