<?xml version="1.0" encoding="UTF-8"?>

<!-- generated on 2025-03-21 17:49:20 by Eclipse SUMO sumo Version 1.21.0
<sumoConfiguration xmlns:xsi="http://www.w3.org/2001/XMLSchema-instance" xsi:noNamespaceSchemaLocation="http://sumo.dlr.de/xsd/sumoConfiguration.xsd">

    <input>
        <net-file value="${STATICPATH}/joined_lanes.net.xml"/>
        <route-files value="${SIMULATIONPATH}/generatedRoutes.rou.xml"/>
        <additional-files value="${STATICPATH}/detectors.add.xml,${STATICPATH}/joined_vtypes.add.xml,${STATICPATH}/joined_tls.add.xml"/>
    </input>

    <output>
        <fcd-output value="${SIMULATIONPATH}/fcd.xml"/>
        <queue-output value="${SIMULATIONPATH}/queue.xml"/>
        <summary-output value="${SIMULATIONPATH}/summary.xml"/>
        <tripinfo-output value="${SIMULATIONPATH}/tripinfos.xml"/>
        <vehroute-output value="${SIMULATIONPATH}/vehroute.xml"/>
        <save-state.prefix value="configs\state"/>
    </output>

    <processing>
        <ignore-junction-blocker value="1"/>
        <ignore-route-errors value="true"/>
        <time-to-teleport value="-1"/>
    </processing>

    <report>
        <log value="C:/Users/fabio/Desktop/sumo_log.txt"/>
        <no-step-log value="true"/>
    </report>

    <emissions>
        <phemlight-path value="configs\./PHEMlight/"/>
    </emissions>

    <traci_server>
        <remote-port value="60205"/>
    </traci_server>

</sumoConfiguration>
-->

<tripinfos xmlns:xsi="http://www.w3.org/2001/XMLSchema-instance" xsi:noNamespaceSchemaLocation="http://sumo.dlr.de/xsd/tripinfo_file.xsd">
    <tripinfo id="0" depart="40.00" departLane="a161_0" departPos="5.10" departSpeed="0.00" departDelay="0.29" arrival="362.00" arrivalLane="b2[1][1][1]b_0" arrivalPos="325.74" arrivalSpeed="13.92" duration="322.00" routeLength="2870.27" waitingTime="87.00" waitingCount="3" stopTime="0.00" timeLoss="124.63" rerouteNo="0" devices="vehroute_0 tripinfo_0 fcd_0" vType="DEFAULT_VEHTYPE" speedFactor="1.06" vaporized=""/>
    <tripinfo id="1" depart="44.00" departLane="a161_0" departPos="5.10" departSpeed="0.00" departDelay="0.37" arrival="371.00" arrivalLane="b2[1][1][1]b_0" arrivalPos="325.74" arrivalSpeed="12.78" duration="327.00" routeLength="2868.74" waitingTime="67.00" waitingCount="1" stopTime="0.00" timeLoss="104.24" rerouteNo="0" devices="vehroute_1 tripinfo_1 fcd_1" vType="DEFAULT_VEHTYPE" speedFactor="0.94" vaporized=""/>
    <tripinfo id="3" depart="93.00" departLane="a161_0" departPos="5.10" departSpeed="0.00" departDelay="0.08" arrival="379.00" arrivalLane="b2[1][1][1]b_0" arrivalPos="325.74" arrivalSpeed="14.55" duration="286.00" routeLength="2865.78" waitingTime="63.00" waitingCount="2" stopTime="0.00" timeLoss="92.92" rerouteNo="0" devices="vehroute_3 tripinfo_3 fcd_3" vType="DEFAULT_VEHTYPE" speedFactor="1.08" vaporized=""/>
    <tripinfo id="2" depart="70.00" departLane="a161_0" departPos="5.10" departSpeed="0.00" departDelay="0.91" arrival="488.00" arrivalLane="b2[1][1][1]b_0" arrivalPos="325.74" arrivalSpeed="13.87" duration="418.00" routeLength="2868.74" waitingTime="175.00" waitingCount="3" stopTime="0.00" timeLoss="210.89" rerouteNo="0" devices="vehroute_2 tripinfo_2 fcd_2" vType="DEFAULT_VEHTYPE" speedFactor="1.01" vaporized=""/>
    <tripinfo id="4" depart="209.00" departLane="a161_0" departPos="5.10" departSpeed="0.00" departDelay="0.99" arrival="615.00" arrivalLane="b2[1][1][1]b_1" arrivalPos="325.74" arrivalSpeed="13.67" duration="406.00" routeLength="2873.23" waitingTime="148.00" waitingCount="3" stopTime="0.00" timeLoss="203.11" rerouteNo="0" devices="vehroute_4 tripinfo_4 fcd_4" vType="DEFAULT_VEHTYPE" speedFactor="1.03" vaporized=""/>
    <tripinfo id="6" depart="221.00" departLane="a161_0" departPos="5.10" departSpeed="0.00" departDelay="0.14" arrival="615.00" arrivalLane="b2[1][1][1]b_0" arrivalPos="325.74" arrivalSpeed="13.77" duration="394.00" routeLength="2865.78" waitingTime="148.00" waitingCount="3" stopTime="0.00" timeLoss="194.23" rerouteNo="0" devices="vehroute_6 tripinfo_6 fcd_6" vType="DEFAULT_VEHTYPE" speedFactor="1.05" vaporized=""/>
    <tripinfo id="8" depart="246.00" departLane="a161_0" departPos="5.10" departSpeed="0.00" departDelay="0.58" arrival="620.00" arrivalLane="b2[1][1][1]b_0" arrivalPos="325.74" arrivalSpeed="12.99" duration="374.00" routeLength="2865.78" waitingTime="103.00" waitingCount="2" stopTime="0.00" timeLoss="151.33" rerouteNo="0" devices="vehroute_8 tripinfo_8 fcd_8" vType="DEFAULT_VEHTYPE" speedFactor="0.94" vaporized=""/>
    <tripinfo id="7" depart="225.00" departLane="a161_0" departPos="5.10" departSpeed="0.00" departDelay="0.75" arrival="624.00" arrivalLane="b2[1][1][1]b_0" arrivalPos="325.74" arrivalSpeed="11.57" duration="399.00" routeLength="2865.78" waitingTime="120.00" waitingCount="2" stopTime="0.00" timeLoss="163.73" rerouteNo="0" devices="vehroute_7 tripinfo_7 fcd_7" vType="DEFAULT_VEHTYPE" speedFactor="0.89" vaporized=""/>
    <tripinfo id="5" depart="212.00" departLane="a161_0" departPos="5.10" departSpeed="0.00" departDelay="2.61" arrival="628.00" arrivalLane="b2[1][1][1]b_0" arrivalPos="325.74" arrivalSpeed="10.97" duration="416.00" routeLength="2868.74" waitingTime="129.00" waitingCount="2" stopTime="0.00" timeLoss="165.23" rerouteNo="0" devices="vehroute_5 tripinfo_5 fcd_5" vType="DEFAULT_VEHTYPE" speedFactor="0.83" vaporized=""/>
    <tripinfo id="13" depart="437.00" departLane="a161_0" departPos="5.10" departSpeed="0.00" departDelay="0.01" arrival="738.00" arrivalLane="b2[1][1][1]b_1" arrivalPos="325.74" arrivalSpeed="14.47" duration="301.00" routeLength="2865.78" waitingTime="61.00" waitingCount="5" stopTime="0.00" timeLoss="114.73" rerouteNo="0" devices="vehroute_13 tripinfo_13 fcd_13" vType="DEFAULT_VEHTYPE" speedFactor="1.12" vaporized=""/>
    <tripinfo id="10" depart="364.00" departLane="a161_0" departPos="5.10" departSpeed="0.00" departDelay="0.24" arrival="739.00" arrivalLane="b2[1][1][1]b_0" arrivalPos="325.74" arrivalSpeed="14.04" duration="375.00" routeLength="2868.74" waitingTime="132.00" waitingCount="5" stopTime="0.00" timeLoss="182.76" rerouteNo="0" devices="vehroute_10 tripinfo_10 fcd_10" vType="DEFAULT_VEHTYPE" speedFactor="1.09" vaporized=""/>
    <tripinfo id="11" depart="381.00" departLane="a161_0" departPos="5.10" departSpeed="0.00" departDelay="0.61" arrival="740.00" arrivalLane="b2[1][1][1]b_1" arrivalPos="325.74" arrivalSpeed="13.21" duration="359.00" routeLength="2865.78" waitingTime="116.00" waitingCount="4" stopTime="0.00" timeLoss="156.08" rerouteNo="0" devices="vehroute_11 tripinfo_11 fcd_11" vType="DEFAULT_VEHTYPE" speedFactor="1.03" vaporized=""/>
    <tripinfo id="12" depart="396.00" departLane="a161_0" departPos="5.10" departSpeed="0.00" departDelay="0.95" arrival="742.00" arrivalLane="b2[1][1][1]b_0" arrivalPos="325.74" arrivalSpeed="14.54" duration="346.00" routeLength="2865.78" waitingTime="96.00" waitingCount="5" stopTime="0.00" timeLoss="146.96" rerouteNo="0" devices="vehroute_12 tripinfo_12 fcd_12" vType="DEFAULT_VEHTYPE" speedFactor="1.05" vaporized=""/>
    <tripinfo id="14" depart="471.00" departLane="a161_0" departPos="5.10" departSpeed="0.00" departDelay="0.44" arrival="743.00" arrivalLane="b2[1][1][1]b_1" arrivalPos="325.74" arrivalSpeed="13.52" duration="272.00" routeLength="2870.27" waitingTime="23.00" waitingCount="2" stopTime="0.00" timeLoss="61.33" rerouteNo="0" devices="vehroute_14 tripinfo_14 fcd_14" vType="DEFAULT_VEHTYPE" speedFactor="0.99" vaporized=""/>
    <tripinfo id="15" depart="478.00" departLane="a161_0" departPos="5.10" departSpeed="0.00" departDelay="0.91" arrival="746.00" arrivalLane="b2[1][1][1]b_1" arrivalPos="325.74" arrivalSpeed="11.61" duration="268.00" routeLength="2868.74" waitingTime="10.00" waitingCount="1" stopTime="0.00" timeLoss="43.00" rerouteNo="0" devices="vehroute_15 tripinfo_15 fcd_15" vType="DEFAULT_VEHTYPE" speedFactor="0.93" vaporized=""/>
    <tripinfo id="17" depart="494.00" departLane="a161_0" departPos="5.10" departSpeed="0.00" departDelay="0.41" arrival="748.00" arrivalLane="b2[1][1][1]b_0" arrivalPos="325.74" arrivalSpeed="12.93" duration="254.00" routeLength="2868.74" waitingTime="0.00" waitingCount="0" stopTime="0.00" timeLoss="32.31" rerouteNo="0" devices="vehroute_17 tripinfo_17 fcd_17" vType="DEFAULT_VEHTYPE" speedFactor="0.94" vaporized=""/>
    <tripinfo id="9" depart="354.00" departLane="a161_0" departPos="5.10" departSpeed="0.00" departDelay="0.90" arrival="751.00" arrivalLane="b2[1][1][1]b_0" arrivalPos="325.74" arrivalSpeed="11.78" duration="397.00" routeLength="2873.23" waitingTime="107.00" waitingCount="4" stopTime="0.00" timeLoss="151.54" rerouteNo="0" devices="vehroute_9 tripinfo_9 fcd_9" vType="DEFAULT_VEHTYPE" speedFactor="0.86" vaporized=""/>
    <tripinfo id="16" depart="487.00" departLane="a161_0" departPos="5.10" departSpeed="0.00" departDelay="0.40" arrival="753.00" arrivalLane="b2[1][1][1]b_0" arrivalPos="325.74" arrivalSpeed="12.07" duration="266.00" routeLength="2868.74" waitingTime="1.00" waitingCount="1" stopTime="0.00" timeLoss="27.70" rerouteNo="0" devices="vehroute_16 tripinfo_16 fcd_16" vType="DEFAULT_VEHTYPE" speedFactor="0.88" vaporized=""/>
    <tripinfo id="19" depart="527.00" departLane="a161_0" departPos="5.10" departSpeed="0.00" departDelay="0.05" arrival="862.00" arrivalLane="b2[1][1][1]b_0" arrivalPos="325.74" arrivalSpeed="15.98" duration="335.00" routeLength="2865.78" waitingTime="109.00" waitingCount="4" stopTime="0.00" timeLoss="155.01" rerouteNo="0" devices="vehroute_19 tripinfo_19 fcd_19" vType="DEFAULT_VEHTYPE" speedFactor="1.16" vaporized=""/>
    <tripinfo id="20" depart="541.00" departLane="a161_0" departPos="5.10" departSpeed="0.00" departDelay="0.82" arrival="865.00" arrivalLane="b2[1][1][1]b_0" arrivalPos="325.74" arrivalSpeed="13.04" duration="324.00" routeLength="2865.78" waitingTime="80.00" waitingCount="4" stopTime="0.00" timeLoss="119.07" rerouteNo="0" devices="vehroute_20 tripinfo_20 fcd_20" vType="DEFAULT_VEHTYPE" speedFactor="1.02" vaporized=""/>
    <tripinfo id="22" depart="625.00" departLane="a161_0" departPos="5.10" departSpeed="0.00" departDelay="0.31" arrival="865.00" arrivalLane="b2[1][1][1]b_1" arrivalPos="325.74" arrivalSpeed="12.76" duration="240.00" routeLength="2868.74" waitingTime="0.00" waitingCount="0" stopTime="0.00" timeLoss="25.53" rerouteNo="0" devices="vehroute_22 tripinfo_22 fcd_22" vType="DEFAULT_VEHTYPE" speedFactor="0.97" vaporized=""/>
    <tripinfo id="21" depart="548.00" departLane="a161_0" departPos="5.10" departSpeed="0.00" departDelay="0.71" arrival="868.00" arrivalLane="b2[1][1][1]b_0" arrivalPos="325.74" arrivalSpeed="13.15" duration="320.00" routeLength="2873.23" waitingTime="58.00" waitingCount="5" stopTime="0.00" timeLoss="112.38" rerouteNo="0" devices="vehroute_21 tripinfo_21 fcd_21" vType="DEFAULT_VEHTYPE" speedFactor="1.01" vaporized=""/>
    <tripinfo id="18" depart="513.00" departLane="a161_0" departPos="5.10" departSpeed="0.00" departDelay="0.90" arrival="869.00" arrivalLane="b2[1][1][1]b_1" arrivalPos="325.74" arrivalSpeed="12.76" duration="356.00" routeLength="2868.74" waitingTime="93.00" waitingCount="3" stopTime="0.00" timeLoss="132.23" rerouteNo="0" devices="vehroute_18 tripinfo_18 fcd_18" vType="DEFAULT_VEHTYPE" speedFactor="0.94" vaporized=""/>
    <tripinfo id="23" depart="630.00" departLane="a161_0" departPos="5.10" departSpeed="0.00" departDelay="0.58" arrival="1001.00" arrivalLane="b2[1][1][1]b_0" arrivalPos="325.74" arrivalSpeed="11.73" duration="371.00" routeLength="2868.74" waitingTime="99.00" waitingCount="3" stopTime="0.00" timeLoss="135.55" rerouteNo="0" devices="vehroute_23 tripinfo_23 fcd_23" vType="DEFAULT_VEHTYPE" speedFactor="0.89" vaporized=""/>
    <tripinfo id="24" depart="701.00" departLane="a161_0" departPos="5.10" departSpeed="0.00" departDelay="0.36" arrival="1006.00" arrivalLane="b2[1][1][1]b_0" arrivalPos="325.74" arrivalSpeed="10.94" duration="305.00" routeLength="2873.23" waitingTime="16.00" waitingCount="3" stopTime="0.00" timeLoss="51.80" rerouteNo="0" devices="vehroute_24 tripinfo_24 fcd_24" vType="DEFAULT_VEHTYPE" speedFactor="0.83" vaporized=""/>
    <tripinfo id="26" depart="778.00" departLane="a161_0" departPos="5.10" departSpeed="0.00" departDelay="0.26" arrival="1124.00" arrivalLane="b2[1][1][1]b_0" arrivalPos="325.74" arrivalSpeed="12.59" duration="346.00" routeLength="2865.78" waitingTime="80.00" waitingCount="3" stopTime="0.00" timeLoss="118.66" rerouteNo="0" devices="vehroute_26 tripinfo_26 fcd_26" vType="DEFAULT_VEHTYPE" speedFactor="0.92" vaporized=""/>
    <tripinfo id="25" depart="775.00" departLane="a161_0" departPos="5.10" departSpeed="0.00" departDelay="0.27" arrival="1126.00" arrivalLane="b2[1][1][1]b_0" arrivalPos="325.74" arrivalSpeed="11.83" duration="351.00" routeLength="2868.74" waitingTime="79.00" waitingCount="3" stopTime="0.00" timeLoss="111.96" rerouteNo="0" devices="vehroute_25 tripinfo_25 fcd_25" vType="DEFAULT_VEHTYPE" speedFactor="0.87" vaporized=""/>
    <tripinfo id="28" depart="869.00" departLane="a161_0" departPos="5.10" departSpeed="0.00" departDelay="0.67" arrival="1244.00" arrivalLane="b2[1][1][1]b_0" arrivalPos="325.74" arrivalSpeed="15.41" duration="375.00" routeLength="2873.23" waitingTime="144.00" waitingCount="6" stopTime="0.00" timeLoss="190.25" rerouteNo="0" devices="vehroute_28 tripinfo_28 fcd_28" vType="DEFAULT_VEHTYPE" speedFactor="1.13" vaporized=""/>
    <tripinfo id="27" depart="862.00" departLane="a161_0" departPos="5.10" departSpeed="0.00" departDelay="0.95" arrival="1248.00" arrivalLane="b2[1][1][1]b_0" arrivalPos="325.74" arrivalSpeed="12.13" duration="386.00" routeLength="2868.74" waitingTime="122.00" waitingCount="4" stopTime="0.00" timeLoss="166.22" rerouteNo="0" devices="vehroute_27 tripinfo_27 fcd_27" vType="DEFAULT_VEHTYPE" speedFactor="0.95" vaporized=""/>
    <tripinfo id="30" depart="1092.00" departLane="a161_0" departPos="5.10" departSpeed="0.00" departDelay="0.21" arrival="1368.00" arrivalLane="b2[1][1][1]b_0" arrivalPos="325.74" arrivalSpeed="15.09" duration="276.00" routeLength="2868.74" waitingTime="61.00" waitingCount="3" stopTime="0.00" timeLoss="99.10" rerouteNo="0" devices="vehroute_30 tripinfo_30 fcd_30" vType="DEFAULT_VEHTYPE" speedFactor="1.18" vaporized=""/>
    <tripinfo id="29" depart="936.00" departLane="a161_0" departPos="5.10" departSpeed="0.00" departDelay="0.67" arrival="1374.00" arrivalLane="b2[1][1][1]b_0" arrivalPos="325.74" arrivalSpeed="11.87" duration="438.00" routeLength="2868.74" waitingTime="174.00" waitingCount="4" stopTime="0.00" timeLoss="213.49" rerouteNo="0" devices="vehroute_29 tripinfo_29 fcd_29" vType="DEFAULT_VEHTYPE" speedFactor="0.93" vaporized=""/>
    <tripinfo id="33" depart="1136.00" departLane="a161_0" departPos="5.10" departSpeed="0.00" departDelay="0.54" arrival="1493.00" arrivalLane="b2[1][1][1]b_0" arrivalPos="325.74" arrivalSpeed="16.05" duration="357.00" routeLength="2865.78" waitingTime="123.00" waitingCount="5" stopTime="0.00" timeLoss="178.64" rerouteNo="0" devices="vehroute_33 tripinfo_33 fcd_33" vType="DEFAULT_VEHTYPE" speedFactor="1.17" vaporized=""/>
    <tripinfo id="31" depart="1103.00" departLane="a161_0" departPos="5.10" departSpeed="0.00" departDelay="0.49" arrival="1494.00" arrivalLane="b2[1][1][1]b_0" arrivalPos="325.74" arrivalSpeed="15.00" duration="391.00" routeLength="2868.74" waitingTime="162.00" waitingCount="4" stopTime="0.00" timeLoss="209.95" rerouteNo="0" devices="vehroute_31 tripinfo_31 fcd_31" vType="DEFAULT_VEHTYPE" speedFactor="1.15" vaporized=""/>
    <tripinfo id="32" depart="1123.00" departLane="a161_0" departPos="5.10" departSpeed="0.00" departDelay="0.46" arrival="1497.00" arrivalLane="b2[1][1][1]b_2" arrivalPos="325.74" arrivalSpeed="13.47" duration="374.00" routeLength="2873.23" waitingTime="114.00" waitingCount="5" stopTime="0.00" timeLoss="165.72" rerouteNo="0" devices="vehroute_32 tripinfo_32 fcd_32" vType="DEFAULT_VEHTYPE" speedFactor="1.01" vaporized=""/>
    <tripinfo id="34" depart="1169.00" departLane="a161_0" departPos="5.10" departSpeed="0.00" departDelay="0.17" arrival="1499.00" arrivalLane="b2[1][1][1]b_0" arrivalPos="325.74" arrivalSpeed="13.71" duration="330.00" routeLength="2865.78" waitingTime="80.00" waitingCount="4" stopTime="0.00" timeLoss="120.41" rerouteNo="0" devices="vehroute_34 tripinfo_34 fcd_34" vType="DEFAULT_VEHTYPE" speedFactor="0.99" vaporized=""/>
    <tripinfo id="37" depart="1327.00" departLane="a161_0" departPos="5.10" departSpeed="0.00" departDelay="3.07" arrival="1618.00" arrivalLane="b2[1][1][1]b_0" arrivalPos="325.74" arrivalSpeed="15.50" duration="291.00" routeLength="2868.74" waitingTime="82.00" waitingCount="2" stopTime="0.00" timeLoss="113.81" rerouteNo="0" devices="vehroute_37 tripinfo_37 fcd_37" vType="DEFAULT_VEHTYPE" speedFactor="1.18" vaporized=""/>
    <tripinfo id="35" depart="1246.00" departLane="a161_0" departPos="5.10" departSpeed="0.00" departDelay="0.04" arrival="1621.00" arrivalLane="b2[1][1][1]b_0" arrivalPos="325.74" arrivalSpeed="12.98" duration="375.00" routeLength="2870.27" waitingTime="123.00" waitingCount="5" stopTime="0.00" timeLoss="170.26" rerouteNo="0" devices="vehroute_35 tripinfo_35 fcd_35" vType="DEFAULT_VEHTYPE" speedFactor="1.02" vaporized=""/>
    <tripinfo id="36" depart="1324.00" departLane="a161_0" departPos="5.10" departSpeed="0.00" departDelay="0.88" arrival="1625.00" arrivalLane="b2[1][1][1]b_0" arrivalPos="325.74" arrivalSpeed="12.92" duration="301.00" routeLength="2868.74" waitingTime="55.00" waitingCount="2" stopTime="0.00" timeLoss="86.43" rerouteNo="0" devices="vehroute_36 tripinfo_36 fcd_36" vType="DEFAULT_VEHTYPE" speedFactor="0.97" vaporized=""/>
    <tripinfo id="38" depart="1354.00" departLane="a161_0" departPos="5.10" departSpeed="0.00" departDelay="0.80" arrival="1744.00" arrivalLane="b2[1][1][1]b_0" arrivalPos="325.74" arrivalSpeed="14.80" duration="390.00" routeLength="2873.23" waitingTime="158.00" waitingCount="5" stopTime="0.00" timeLoss="200.39" rerouteNo="0" devices="vehroute_38 tripinfo_38 fcd_38" vType="DEFAULT_VEHTYPE" speedFactor="1.10" vaporized=""/>
    <tripinfo id="42" depart="1499.00" departLane="a161_0" departPos="5.10" departSpeed="0.00" departDelay="0.85" arrival="1745.00" arrivalLane="b2[1][1][1]b_2" arrivalPos="325.74" arrivalSpeed="14.90" duration="246.00" routeLength="2865.78" waitingTime="24.00" waitingCount="2" stopTime="0.00" timeLoss="54.90" rerouteNo="0" devices="vehroute_42 tripinfo_42 fcd_42" vType="DEFAULT_VEHTYPE" speedFactor="1.09" vaporized=""/>
    <tripinfo id="40" depart="1436.00" departLane="a161_0" departPos="5.10" departSpeed="0.00" departDelay="0.81" arrival="1746.00" arrivalLane="b2[1][1][1]b_1" arrivalPos="325.74" arrivalSpeed="13.81" duration="310.00" routeLength="2873.23" waitingTime="72.00" waitingCount="3" stopTime="0.00" timeLoss="106.73" rerouteNo="0" devices="vehroute_40 tripinfo_40 fcd_40" vType="DEFAULT_VEHTYPE" speedFactor="1.03" vaporized=""/>
    <tripinfo id="39" depart="1421.00" departLane="a161_0" departPos="5.10" departSpeed="0.00" departDelay="0.89" arrival="1752.00" arrivalLane="b2[1][1][1]b_0" arrivalPos="325.74" arrivalSpeed="12.05" duration="331.00" routeLength="2865.78" waitingTime="62.00" waitingCount="4" stopTime="0.00" timeLoss="99.54" rerouteNo="0" devices="vehroute_39 tripinfo_39 fcd_39" vType="DEFAULT_VEHTYPE" speedFactor="0.90" vaporized=""/>
    <tripinfo id="45" depart="1576.00" departLane="a161_0" departPos="5.10" departSpeed="0.00" departDelay="0.63" arrival="1870.00" arrivalLane="b2[1][1][1]b_0" arrivalPos="325.74" arrivalSpeed="14.29" duration="294.00" routeLength="2865.78" waitingTime="57.00" waitingCount="3" stopTime="0.00" timeLoss="101.87" rerouteNo="0" devices="vehroute_45 tripinfo_45 fcd_45" vType="DEFAULT_VEHTYPE" speedFactor="1.09" vaporized=""/>
    <tripinfo id="43" depart="1534.00" departLane="a161_0" departPos="5.10" departSpeed="0.00" departDelay="0.10" arrival="1871.00" arrivalLane="b2[1][1][1]b_0" arrivalPos="325.74" arrivalSpeed="13.83" duration="337.00" routeLength="2870.27" waitingTime="86.00" waitingCount="5" stopTime="0.00" timeLoss="135.58" rerouteNo="0" devices="vehroute_43 tripinfo_43 fcd_43" vType="DEFAULT_VEHTYPE" speedFactor="1.04" vaporized=""/>
    <tripinfo id="44" depart="1557.00" departLane="a161_0" departPos="5.10" departSpeed="0.00" departDelay="0.01" arrival="1871.00" arrivalLane="b2[1][1][1]b_1" arrivalPos="325.74" arrivalSpeed="13.51" duration="314.00" routeLength="2868.74" waitingTime="65.00" waitingCount="5" stopTime="0.00" timeLoss="113.41" rerouteNo="0" devices="vehroute_44 tripinfo_44 fcd_44" vType="DEFAULT_VEHTYPE" speedFactor="1.04" vaporized=""/>
    <tripinfo id="46" depart="1583.00" departLane="a161_0" departPos="5.10" departSpeed="0.00" departDelay="0.76" arrival="1874.00" arrivalLane="b2[1][1][1]b_1" arrivalPos="325.74" arrivalSpeed="13.23" duration="291.00" routeLength="2868.74" waitingTime="45.00" waitingCount="3" stopTime="0.00" timeLoss="81.41" rerouteNo="0" devices="vehroute_46 tripinfo_46 fcd_46" vType="DEFAULT_VEHTYPE" speedFactor="1.00" vaporized=""/>
    <tripinfo id="41" depart="1491.00" departLane="a161_0" departPos="5.10" departSpeed="0.00" departDelay="0.13" arrival="1875.00" arrivalLane="b2[1][1][1]b_0" arrivalPos="325.74" arrivalSpeed="13.07" duration="384.00" routeLength="2868.74" waitingTime="130.00" waitingCount="3" stopTime="0.00" timeLoss="165.68" rerouteNo="0" devices="vehroute_41 tripinfo_41 fcd_41" vType="DEFAULT_VEHTYPE" speedFactor="0.96" vaporized=""/>
    <tripinfo id="51" depart="1714.00" departLane="a161_0" departPos="5.10" departSpeed="0.00" departDelay="0.33" arrival="1955.00" arrivalLane="b2[1][1][1]b_0" arrivalPos="325.74" arrivalSpeed="16.03" duration="241.00" routeLength="2868.74" waitingTime="12.00" waitingCount="3" stopTime="0.00" timeLoss="62.17" rerouteNo="0" devices="vehroute_51 tripinfo_51 fcd_51" vType="DEFAULT_VEHTYPE" speedFactor="1.17" vaporized=""/>
    <tripinfo id="52" depart="1733.00" departLane="a161_0" departPos="5.10" departSpeed="0.00" departDelay="0.16" arrival="1997.00" arrivalLane="b2[1][1][1]b_0" arrivalPos="325.74" arrivalSpeed="13.36" duration="264.00" routeLength="2868.74" waitingTime="27.00" waitingCount="1" stopTime="0.00" timeLoss="58.72" rerouteNo="0" devices="vehroute_52 tripinfo_52 fcd_52" vType="DEFAULT_VEHTYPE" speedFactor="1.02" vaporized=""/>
    <tripinfo id="47" depart="1620.00" departLane="a161_0" departPos="5.10" departSpeed="0.00" departDelay="0.78" arrival="2000.00" arrivalLane="b2[1][1][1]b_0" arrivalPos="325.74" arrivalSpeed="11.32" duration="380.00" routeLength="2868.74" waitingTime="113.00" waitingCount="3" stopTime="0.00" timeLoss="148.12" rerouteNo="0" devices="vehroute_47 tripinfo_47 fcd_47" vType="DEFAULT_VEHTYPE" speedFactor="0.90" vaporized=""/>
    <tripinfo id="48" depart="1636.00" departLane="a161_0" departPos="5.10" departSpeed="0.00" departDelay="0.24" arrival="2003.00" arrivalLane="b2[1][1][1]b_0" arrivalPos="325.74" arrivalSpeed="11.27" duration="367.00" routeLength="2870.27" waitingTime="79.00" waitingCount="6" stopTime="0.00" timeLoss="128.93" rerouteNo="0" devices="vehroute_48 tripinfo_48 fcd_48" vType="DEFAULT_VEHTYPE" speedFactor="0.88" vaporized=""/>
    <tripinfo id="49" depart="1655.00" departLane="a161_0" departPos="5.10" departSpeed="0.00" departDelay="0.99" arrival="2003.00" arrivalLane="b2[1][1][1]b_2" arrivalPos="325.74" arrivalSpeed="11.30" duration="348.00" routeLength="2865.78" waitingTime="40.00" waitingCount="4" stopTime="0.00" timeLoss="101.45" rerouteNo="0" devices="vehroute_49 tripinfo_49 fcd_49" vType="DEFAULT_VEHTYPE" speedFactor="0.85" vaporized=""/>
    <tripinfo id="50" depart="1658.00" departLane="a161_0" departPos="5.10" departSpeed="0.00" departDelay="2.72" arrival="2003.00" arrivalLane="b2[1][1][1]b_1" arrivalPos="325.74" arrivalSpeed="11.78" duration="345.00" routeLength="2865.78" waitingTime="43.00" waitingCount="5" stopTime="0.00" timeLoss="101.08" rerouteNo="0" devices="vehroute_50 tripinfo_50 fcd_50" vType="DEFAULT_VEHTYPE" speedFactor="0.85" vaporized=""/>
    <tripinfo id="53" depart="1754.00" departLane="a161_0" departPos="5.10" departSpeed="0.00" departDelay="0.58" arrival="2079.00" arrivalLane="b2[1][1][1]b_0" arrivalPos="325.74" arrivalSpeed="14.64" duration="325.00" routeLength="2873.23" waitingTime="101.00" waitingCount="3" stopTime="0.00" timeLoss="133.86" rerouteNo="0" devices="vehroute_53 tripinfo_53 fcd_53" vType="DEFAULT_VEHTYPE" speedFactor="1.10" vaporized=""/>
    <tripinfo id="57" depart="1823.00" departLane="a161_0" departPos="5.10" departSpeed="0.00" departDelay="0.89" arrival="2118.00" arrivalLane="b2[1][1][1]b_0" arrivalPos="325.74" arrivalSpeed="14.65" duration="295.00" routeLength="2865.78" waitingTime="63.00" waitingCount="3" stopTime="0.00" timeLoss="112.55" rerouteNo="0" devices="vehroute_57 tripinfo_57 fcd_57" vType="DEFAULT_VEHTYPE" speedFactor="1.14" vaporized=""/>
    <tripinfo id="54" depart="1757.00" departLane="a161_0" departPos="5.10" departSpeed="0.00" departDelay="0.73" arrival="2122.00" arrivalLane="b2[1][1][1]b_0" arrivalPos="325.74" arrivalSpeed="13.04" duration="365.00" routeLength="2865.78" waitingTime="114.00" waitingCount="5" stopTime="0.00" timeLoss="156.71" rerouteNo="0" devices="vehroute_54 tripinfo_54 fcd_54" vType="DEFAULT_VEHTYPE" speedFactor="1.00" vaporized=""/>
    <tripinfo id="58" depart="1834.00" departLane="a161_0" departPos="5.10" departSpeed="0.00" departDelay="0.08" arrival="2122.00" arrivalLane="b2[1][1][1]b_1" arrivalPos="325.74" arrivalSpeed="13.70" duration="288.00" routeLength="2865.78" waitingTime="30.00" waitingCount="2" stopTime="0.00" timeLoss="83.90" rerouteNo="0" devices="vehroute_58 tripinfo_58 fcd_58" vType="DEFAULT_VEHTYPE" speedFactor="1.02" vaporized=""/>
    <tripinfo id="55" depart="1760.00" departLane="a161_0" departPos="5.10" departSpeed="0.00" departDelay="2.33" arrival="2125.00" arrivalLane="b2[1][1][1]b_0" arrivalPos="325.74" arrivalSpeed="13.61" duration="365.00" routeLength="2868.74" waitingTime="106.00" waitingCount="5" stopTime="0.00" timeLoss="154.91" rerouteNo="0" devices="vehroute_55 tripinfo_55 fcd_55" vType="DEFAULT_VEHTYPE" speedFactor="1.00" vaporized=""/>
    <tripinfo id="56" depart="1810.00" departLane="a161_0" departPos="5.10" departSpeed="0.00" departDelay="0.76" arrival="2127.00" arrivalLane="b2[1][1][1]b_0" arrivalPos="325.74" arrivalSpeed="11.72" duration="317.00" routeLength="2868.74" waitingTime="47.00" waitingCount="3" stopTime="0.00" timeLoss="84.68" rerouteNo="0" devices="vehroute_56 tripinfo_56 fcd_56" vType="DEFAULT_VEHTYPE" speedFactor="0.90" vaporized=""/>
    <tripinfo id="61" depart="1973.00" departLane="a161_0" departPos="5.10" departSpeed="0.00" departDelay="0.35" arrival="2327.00" arrivalLane="b2[1][1][1]b_0" arrivalPos="325.74" arrivalSpeed="14.98" duration="354.00" routeLength="2865.78" waitingTime="133.00" waitingCount="3" stopTime="0.00" timeLoss="167.01" rerouteNo="0" devices="vehroute_61 tripinfo_61 fcd_61" vType="DEFAULT_VEHTYPE" speedFactor="1.12" vaporized=""/>
    <tripinfo id="60" depart="1928.00" departLane="a161_0" departPos="5.10" departSpeed="0.00" departDelay="0.88" arrival="2328.00" arrivalLane="b2[1][1][1]b_0" arrivalPos="325.74" arrivalSpeed="15.00" duration="400.00" routeLength="2865.78" waitingTime="173.00" waitingCount="3" stopTime="0.00" timeLoss="207.74" rerouteNo="0" devices="vehroute_60 tripinfo_60 fcd_60" vType="DEFAULT_VEHTYPE" speedFactor="1.08" vaporized=""/>
    <tripinfo id="62" depart="1979.00" departLane="a161_0" departPos="5.10" departSpeed="0.00" departDelay="0.69" arrival="2334.00" arrivalLane="b2[1][1][1]b_0" arrivalPos="325.74" arrivalSpeed="13.47" duration="355.00" routeLength="2873.23" waitingTime="118.00" waitingCount="2" stopTime="0.00" timeLoss="149.33" rerouteNo="0" devices="vehroute_62 tripinfo_62 fcd_62" vType="DEFAULT_VEHTYPE" speedFactor="1.02" vaporized=""/>
    <tripinfo id="59" depart="1898.00" departLane="a161_0" departPos="5.10" departSpeed="0.00" departDelay="0.65" arrival="2338.00" arrivalLane="b2[1][1][1]b_0" arrivalPos="325.74" arrivalSpeed="13.34" duration="440.00" routeLength="2873.23" waitingTime="183.00" waitingCount="4" stopTime="0.00" timeLoss="223.73" rerouteNo="0" devices="vehroute_59 tripinfo_59 fcd_59" vType="DEFAULT_VEHTYPE" speedFactor="0.97" vaporized=""/>
    <tripinfo id="63" depart="2183.00" departLane="a161_0" departPos="5.10" departSpeed="0.00" departDelay="0.49" arrival="2459.00" arrivalLane="b2[1][1][1]b_1" arrivalPos="325.74" arrivalSpeed="13.41" duration="276.00" routeLength="2873.23" waitingTime="33.00" waitingCount="2" stopTime="0.00" timeLoss="63.46" rerouteNo="0" devices="vehroute_63 tripinfo_63 fcd_63" vType="DEFAULT_VEHTYPE" speedFactor="0.99" vaporized=""/>
    <tripinfo id="64" depart="2215.00" departLane="a161_0" departPos="5.10" departSpeed="0.00" departDelay="0.21" arrival="2459.00" arrivalLane="b2[1][1][1]b_0" arrivalPos="325.74" arrivalSpeed="12.98" duration="244.00" routeLength="2868.74" waitingTime="0.00" waitingCount="0" stopTime="0.00" timeLoss="21.25" rerouteNo="0" devices="vehroute_64 tripinfo_64 fcd_64" vType="DEFAULT_VEHTYPE" speedFactor="0.94" vaporized=""/>
    <tripinfo id="68" depart="2310.00" departLane="a161_0" departPos="5.10" departSpeed="0.00" departDelay="2.50" arrival="2577.00" arrivalLane="b2[1][1][1]b_0" arrivalPos="325.74" arrivalSpeed="13.74" duration="267.00" routeLength="2873.23" waitingTime="13.00" waitingCount="3" stopTime="0.00" timeLoss="66.15" rerouteNo="0" devices="vehroute_68 tripinfo_68 fcd_68" vType="DEFAULT_VEHTYPE" speedFactor="1.04" vaporized=""/>