<?xml version="1.0" encoding="UTF-8"?>

<!-- generated on 2025-03-21 17:45:54 by Eclipse SUMO sumo Version 1.21.0
<sumoConfiguration xmlns:xsi="http://www.w3.org/2001/XMLSchema-instance" xsi:noNamespaceSchemaLocation="http://sumo.dlr.de/xsd/sumoConfiguration.xsd">

    <input>
        <net-file value="${STATICPATH}/joined_lanes.net.xml"/>
        <route-files value="${SIMULATIONPATH}/generatedRoutes.rou.xml"/>
        <additional-files value="${STATICPATH}/detectors.add.xml,${STATICPATH}/joined_vtypes.add.xml,${STATICPATH}/joined_tls.add.xml"/>
    </input>

    <output>
        <fcd-output value="${SIMULATIONPATH}/fcd.xml"/>
        <queue-output value="${SIMULATIONPATH}/queue.xml"/>
        <summary-output value="${SIMULATIONPATH}/summary.xml"/>
        <tripinfo-output value="${SIMULATIONPATH}/tripinfos.xml"/>
        <vehroute-output value="${SIMULATIONPATH}/vehroute.xml"/>
        <save-state.prefix value="configs\state"/>
    </output>

    <processing>
        <ignore-junction-blocker value="1"/>
        <ignore-route-errors value="true"/>
        <time-to-teleport value="-1"/>
    </processing>

    <report>
        <log value="C:/Users/fabio/Desktop/sumo_log.txt"/>
        <no-step-log value="true"/>
    </report>

    <emissions>
        <phemlight-path value="configs\./PHEMlight/"/>
    </emissions>

    <traci_server>
        <remote-port value="60146"/>
    </traci_server>

</sumoConfiguration>
-->

<tripinfos xmlns:xsi="http://www.w3.org/2001/XMLSchema-instance" xsi:noNamespaceSchemaLocation="http://sumo.dlr.de/xsd/tripinfo_file.xsd">
    <tripinfo id="0" depart="40.00" departLane="a122_0" departPos="5.10" departSpeed="0.00" departDelay="0.29" arrival="362.00" arrivalLane="b2[1][1][1]b_0" arrivalPos="325.74" arrivalSpeed="14.48" duration="322.00" routeLength="2658.69" waitingTime="102.00" waitingCount="3" stopTime="0.00" timeLoss="138.51" rerouteNo="0" devices="vehroute_0 tripinfo_0 fcd_0" vType="DEFAULT_VEHTYPE" speedFactor="1.06" vaporized=""/>
    <tripinfo id="2" depart="70.00" departLane="a122_0" departPos="5.10" departSpeed="0.00" departDelay="0.91" arrival="367.00" arrivalLane="b2[1][1][1]b_0" arrivalPos="325.74" arrivalSpeed="12.81" duration="297.00" routeLength="2657.16" waitingTime="79.00" waitingCount="1" stopTime="0.00" timeLoss="104.56" rerouteNo="0" devices="vehroute_2 tripinfo_2 fcd_2" vType="DEFAULT_VEHTYPE" speedFactor="1.01" vaporized=""/>
    <tripinfo id="1" depart="44.00" departLane="a122_0" departPos="5.10" departSpeed="0.00" departDelay="0.37" arrival="371.00" arrivalLane="b2[1][1][1]b_0" arrivalPos="325.74" arrivalSpeed="12.14" duration="327.00" routeLength="2657.16" waitingTime="86.00" waitingCount="3" stopTime="0.00" timeLoss="120.33" rerouteNo="0" devices="vehroute_1 tripinfo_1 fcd_1" vType="DEFAULT_VEHTYPE" speedFactor="0.94" vaporized=""/>
    <tripinfo id="3" depart="93.00" departLane="a210_0" departPos="5.10" departSpeed="0.00" departDelay="0.08" arrival="403.00" arrivalLane="b3[1]_0" arrivalPos="172.58" arrivalSpeed="14.92" duration="310.00" routeLength="2778.17" waitingTime="94.00" waitingCount="3" stopTime="0.00" timeLoss="124.76" rerouteNo="0" devices="vehroute_3 tripinfo_3 fcd_3" vType="DEFAULT_VEHTYPE" speedFactor="1.08" vaporized=""/>
    <tripinfo id="6" depart="221.00" departLane="a122_0" departPos="5.10" departSpeed="0.00" departDelay="0.14" arrival="486.00" arrivalLane="b2[1][1][1]b_0" arrivalPos="325.74" arrivalSpeed="13.59" duration="265.00" routeLength="2657.16" waitingTime="50.00" waitingCount="2" stopTime="0.00" timeLoss="78.96" rerouteNo="0" devices="vehroute_6 tripinfo_6 fcd_6" vType="DEFAULT_VEHTYPE" speedFactor="1.05" vaporized=""/>
    <tripinfo id="5" depart="210.00" departLane="a122_0" departPos="5.10" departSpeed="0.00" departDelay="0.61" arrival="503.00" arrivalLane="b2[1][1][1]b_0" arrivalPos="325.74" arrivalSpeed="11.16" duration="293.00" routeLength="2661.65" waitingTime="28.00" waitingCount="2" stopTime="0.00" timeLoss="59.42" rerouteNo="0" devices="vehroute_5 tripinfo_5 fcd_5" vType="DEFAULT_VEHTYPE" speedFactor="0.83" vaporized=""/>
    <tripinfo id="4" depart="209.00" departLane="a210_0" departPos="5.10" departSpeed="0.00" departDelay="0.99" arrival="562.00" arrivalLane="b3[1]_0" arrivalPos="172.58" arrivalSpeed="13.11" duration="353.00" routeLength="2775.21" waitingTime="120.00" waitingCount="4" stopTime="0.00" timeLoss="157.49" rerouteNo="0" devices="vehroute_4 tripinfo_4 fcd_4" vType="DEFAULT_VEHTYPE" speedFactor="1.03" vaporized=""/>
    <tripinfo id="8" depart="246.00" departLane="a210_0" departPos="5.10" departSpeed="0.00" departDelay="0.58" arrival="562.00" arrivalLane="b3[1]_1" arrivalPos="172.58" arrivalSpeed="12.99" duration="316.00" routeLength="2772.92" waitingTime="64.00" waitingCount="3" stopTime="0.00" timeLoss="101.96" rerouteNo="0" devices="vehroute_8 tripinfo_8 fcd_8" vType="DEFAULT_VEHTYPE" speedFactor="0.94" vaporized=""/>
    <tripinfo id="7" depart="225.00" departLane="a210_0" departPos="5.10" departSpeed="0.00" departDelay="0.75" arrival="566.00" arrivalLane="b3[1]_0" arrivalPos="172.58" arrivalSpeed="11.68" duration="341.00" routeLength="2778.17" waitingTime="84.00" waitingCount="3" stopTime="0.00" timeLoss="113.62" rerouteNo="0" devices="vehroute_7 tripinfo_7 fcd_7" vType="DEFAULT_VEHTYPE" speedFactor="0.89" vaporized=""/>
    <tripinfo id="10" depart="364.00" departLane="a122_0" departPos="5.10" departSpeed="0.00" departDelay="0.24" arrival="618.00" arrivalLane="b2[1][1][1]b_0" arrivalPos="325.74" arrivalSpeed="14.02" duration="254.00" routeLength="2657.16" waitingTime="48.00" waitingCount="2" stopTime="0.00" timeLoss="76.31" rerouteNo="0" devices="vehroute_10 tripinfo_10 fcd_10" vType="DEFAULT_VEHTYPE" speedFactor="1.09" vaporized=""/>
    <tripinfo id="9" depart="292.00" departLane="a122_0" departPos="5.10" departSpeed="0.00" departDelay="0.69" arrival="623.00" arrivalLane="b2[1][1][1]b_0" arrivalPos="325.74" arrivalSpeed="10.80" duration="331.00" routeLength="2658.69" waitingTime="69.00" waitingCount="3" stopTime="0.00" timeLoss="104.61" rerouteNo="0" devices="vehroute_9 tripinfo_9 fcd_9" vType="DEFAULT_VEHTYPE" speedFactor="0.86" vaporized=""/>
    <tripinfo id="13" depart="419.00" departLane="a210_0" departPos="5.10" departSpeed="0.00" departDelay="0.08" arrival="703.00" arrivalLane="b3[1]_0" arrivalPos="172.58" arrivalSpeed="14.97" duration="284.00" routeLength="2775.21" waitingTime="64.00" waitingCount="3" stopTime="0.00" timeLoss="105.28" rerouteNo="0" devices="vehroute_13 tripinfo_13 fcd_13" vType="DEFAULT_VEHTYPE" speedFactor="1.12" vaporized=""/>
    <tripinfo id="11" depart="381.00" departLane="a210_0" departPos="5.10" departSpeed="0.00" departDelay="0.61" arrival="704.00" arrivalLane="b3[1]_0" arrivalPos="172.58" arrivalSpeed="14.00" duration="323.00" routeLength="2772.92" waitingTime="84.00" waitingCount="5" stopTime="0.00" timeLoss="127.09" rerouteNo="0" devices="vehroute_11 tripinfo_11 fcd_11" vType="DEFAULT_VEHTYPE" speedFactor="1.03" vaporized=""/>
    <tripinfo id="14" depart="437.00" departLane="a210_0" departPos="5.10" departSpeed="0.00" departDelay="0.01" arrival="711.00" arrivalLane="b3[1]_0" arrivalPos="172.58" arrivalSpeed="12.65" duration="274.00" routeLength="2775.21" waitingTime="44.00" waitingCount="2" stopTime="0.00" timeLoss="70.81" rerouteNo="0" devices="vehroute_14 tripinfo_14 fcd_14" vType="DEFAULT_VEHTYPE" speedFactor="0.99" vaporized=""/>
    <tripinfo id="16" depart="478.00" departLane="a210_0" departPos="5.10" departSpeed="0.00" departDelay="0.91" arrival="730.00" arrivalLane="b3[1]_0" arrivalPos="172.58" arrivalSpeed="12.05" duration="252.00" routeLength="2778.17" waitingTime="1.00" waitingCount="1" stopTime="0.00" timeLoss="22.73" rerouteNo="0" devices="vehroute_16 tripinfo_16 fcd_16" vType="DEFAULT_VEHTYPE" speedFactor="0.88" vaporized=""/>
    <tripinfo id="12" depart="396.00" departLane="a122_0" departPos="5.10" departSpeed="0.00" departDelay="0.95" arrival="744.00" arrivalLane="b2[1][1][1]b_0" arrivalPos="325.74" arrivalSpeed="13.45" duration="348.00" routeLength="2661.65" waitingTime="118.00" waitingCount="5" stopTime="0.00" timeLoss="162.61" rerouteNo="0" devices="vehroute_12 tripinfo_12 fcd_12" vType="DEFAULT_VEHTYPE" speedFactor="1.05" vaporized=""/>
    <tripinfo id="15" depart="471.00" departLane="a122_0" departPos="5.10" departSpeed="0.00" departDelay="0.44" arrival="747.00" arrivalLane="b2[1][1][1]b_0" arrivalPos="325.74" arrivalSpeed="12.11" duration="276.00" routeLength="2661.65" waitingTime="32.00" waitingCount="3" stopTime="0.00" timeLoss="66.42" rerouteNo="0" devices="vehroute_15 tripinfo_15 fcd_15" vType="DEFAULT_VEHTYPE" speedFactor="0.93" vaporized=""/>
    <tripinfo id="19" depart="513.00" departLane="a210_0" departPos="5.10" departSpeed="0.00" departDelay="0.90" arrival="865.00" arrivalLane="b3[1]_0" arrivalPos="172.58" arrivalSpeed="15.70" duration="352.00" routeLength="2772.92" waitingTime="120.00" waitingCount="3" stopTime="0.00" timeLoss="178.18" rerouteNo="0" devices="vehroute_19 tripinfo_19 fcd_19" vType="DEFAULT_VEHTYPE" speedFactor="1.16" vaporized=""/>
    <tripinfo id="18" depart="494.00" departLane="a210_0" departPos="5.10" departSpeed="0.00" departDelay="0.41" arrival="867.00" arrivalLane="b3[1]_0" arrivalPos="172.58" arrivalSpeed="12.02" duration="373.00" routeLength="2775.21" waitingTime="127.00" waitingCount="4" stopTime="0.00" timeLoss="158.84" rerouteNo="0" devices="vehroute_18 tripinfo_18 fcd_18" vType="DEFAULT_VEHTYPE" speedFactor="0.94" vaporized=""/>
    <tripinfo id="22" depart="625.00" departLane="a210_0" departPos="5.10" departSpeed="0.00" departDelay="0.31" arrival="869.00" arrivalLane="b3[1]_0" arrivalPos="172.58" arrivalSpeed="12.53" duration="244.00" routeLength="2778.17" waitingTime="12.00" waitingCount="1" stopTime="0.00" timeLoss="37.71" rerouteNo="0" devices="vehroute_22 tripinfo_22 fcd_22" vType="DEFAULT_VEHTYPE" speedFactor="0.97" vaporized=""/>
    <tripinfo id="17" depart="487.00" departLane="a210_0" departPos="5.10" departSpeed="0.00" departDelay="0.40" arrival="870.00" arrivalLane="b3[1]_1" arrivalPos="172.58" arrivalSpeed="12.94" duration="383.00" routeLength="2772.92" waitingTime="132.00" waitingCount="4" stopTime="0.00" timeLoss="169.76" rerouteNo="0" devices="vehroute_17 tripinfo_17 fcd_17" vType="DEFAULT_VEHTYPE" speedFactor="0.94" vaporized=""/>
    <tripinfo id="20" depart="527.00" departLane="a122_0" departPos="5.10" departSpeed="0.00" departDelay="0.05" arrival="870.00" arrivalLane="b2[1][1][1]b_0" arrivalPos="325.74" arrivalSpeed="13.52" duration="343.00" routeLength="2658.69" waitingTime="114.00" waitingCount="4" stopTime="0.00" timeLoss="153.01" rerouteNo="0" devices="vehroute_20 tripinfo_20 fcd_20" vType="DEFAULT_VEHTYPE" speedFactor="1.02" vaporized=""/>
    <tripinfo id="21" depart="548.00" departLane="a122_0" departPos="5.10" departSpeed="0.00" departDelay="0.71" arrival="870.00" arrivalLane="b2[1][1][1]b_1" arrivalPos="325.74" arrivalSpeed="13.23" duration="322.00" routeLength="2654.20" waitingTime="91.00" waitingCount="4" stopTime="0.00" timeLoss="130.04" rerouteNo="0" devices="vehroute_21 tripinfo_21 fcd_21" vType="DEFAULT_VEHTYPE" speedFactor="1.01" vaporized=""/>
    <tripinfo id="23" depart="630.00" departLane="a210_0" departPos="5.10" departSpeed="0.00" departDelay="0.58" arrival="873.00" arrivalLane="b3[1]_0" arrivalPos="172.58" arrivalSpeed="11.18" duration="243.00" routeLength="2778.17" waitingTime="0.00" waitingCount="0" stopTime="0.00" timeLoss="16.62" rerouteNo="0" devices="vehroute_23 tripinfo_23 fcd_23" vType="DEFAULT_VEHTYPE" speedFactor="0.89" vaporized=""/>
    <tripinfo id="27" depart="778.00" departLane="a210_0" departPos="5.10" departSpeed="0.00" departDelay="0.26" arrival="1035.00" arrivalLane="b3[1]_0" arrivalPos="172.58" arrivalSpeed="13.08" duration="257.00" routeLength="2769.96" waitingTime="27.00" waitingCount="1" stopTime="0.00" timeLoss="45.91" rerouteNo="0" devices="vehroute_27 tripinfo_27 fcd_27" vType="DEFAULT_VEHTYPE" speedFactor="0.95" vaporized=""/>
    <tripinfo id="24" depart="701.00" departLane="a210_0" departPos="5.10" departSpeed="0.00" departDelay="0.36" arrival="1038.00" arrivalLane="b3[1]_0" arrivalPos="172.58" arrivalSpeed="11.29" duration="337.00" routeLength="2778.17" waitingTime="60.00" waitingCount="3" stopTime="0.00" timeLoss="93.58" rerouteNo="0" devices="vehroute_24 tripinfo_24 fcd_24" vType="DEFAULT_VEHTYPE" speedFactor="0.83" vaporized=""/>
    <tripinfo id="25" depart="751.00" departLane="a210_0" departPos="5.10" departSpeed="0.00" departDelay="0.36" arrival="1039.00" arrivalLane="b3[1]_1" arrivalPos="172.58" arrivalSpeed="11.57" duration="288.00" routeLength="2772.92" waitingTime="31.00" waitingCount="2" stopTime="0.00" timeLoss="57.87" rerouteNo="0" devices="vehroute_25 tripinfo_25 fcd_25" vType="DEFAULT_VEHTYPE" speedFactor="0.87" vaporized=""/>
    <tripinfo id="26" depart="775.00" departLane="a210_0" departPos="5.10" departSpeed="0.00" departDelay="0.27" arrival="1040.00" arrivalLane="b3[1]_0" arrivalPos="172.58" arrivalSpeed="12.11" duration="265.00" routeLength="2778.17" waitingTime="23.00" waitingCount="1" stopTime="0.00" timeLoss="45.60" rerouteNo="0" devices="vehroute_26 tripinfo_26 fcd_26" vType="DEFAULT_VEHTYPE" speedFactor="0.92" vaporized=""/>
    <tripinfo id="30" depart="936.00" departLane="a210_0" departPos="5.10" departSpeed="0.00" departDelay="0.67" arrival="1159.00" arrivalLane="b3[1]_1" arrivalPos="172.58" arrivalSpeed="15.72" duration="223.00" routeLength="2772.92" waitingTime="31.00" waitingCount="2" stopTime="0.00" timeLoss="52.80" rerouteNo="0" devices="vehroute_30 tripinfo_30 fcd_30" vType="DEFAULT_VEHTYPE" speedFactor="1.18" vaporized=""/>
    <tripinfo id="28" depart="862.00" departLane="a210_0" departPos="5.10" departSpeed="0.00" departDelay="0.95" arrival="1160.00" arrivalLane="b3[1]_0" arrivalPos="172.58" arrivalSpeed="15.02" duration="298.00" routeLength="2778.17" waitingTime="80.00" waitingCount="5" stopTime="0.00" timeLoss="120.56" rerouteNo="0" devices="vehroute_28 tripinfo_28 fcd_28" vType="DEFAULT_VEHTYPE" speedFactor="1.13" vaporized=""/>
    <tripinfo id="29" depart="869.00" departLane="a122_0" departPos="5.10" departSpeed="0.00" departDelay="0.67" arrival="1232.00" arrivalLane="b2[1][1][1]b_0" arrivalPos="325.74" arrivalSpeed="11.75" duration="363.00" routeLength="2658.69" waitingTime="117.00" waitingCount="4" stopTime="0.00" timeLoss="154.55" rerouteNo="0" devices="vehroute_29 tripinfo_29 fcd_29" vType="DEFAULT_VEHTYPE" speedFactor="0.93" vaporized=""/>
    <tripinfo id="33" depart="1103.00" departLane="a122_0" departPos="5.10" departSpeed="0.00" departDelay="0.49" arrival="1340.00" arrivalLane="b2[1][1][1]b_1" arrivalPos="325.74" arrivalSpeed="16.06" duration="237.00" routeLength="2657.16" waitingTime="42.00" waitingCount="2" stopTime="0.00" timeLoss="71.53" rerouteNo="0" devices="vehroute_33 tripinfo_33 fcd_33" vType="DEFAULT_VEHTYPE" speedFactor="1.17" vaporized=""/>
    <tripinfo id="31" depart="1092.00" departLane="a122_0" departPos="5.10" departSpeed="0.00" departDelay="0.21" arrival="1341.00" arrivalLane="b2[1][1][1]b_0" arrivalPos="325.74" arrivalSpeed="15.01" duration="249.00" routeLength="2657.16" waitingTime="54.00" waitingCount="2" stopTime="0.00" timeLoss="80.79" rerouteNo="0" devices="vehroute_31 tripinfo_31 fcd_31" vType="DEFAULT_VEHTYPE" speedFactor="1.15" vaporized=""/>
    <tripinfo id="32" depart="1097.00" departLane="a210_0" departPos="5.10" departSpeed="0.00" departDelay="0.16" arrival="1345.00" arrivalLane="b3[1]_0" arrivalPos="172.58" arrivalSpeed="13.06" duration="248.00" routeLength="2778.17" waitingTime="29.00" waitingCount="1" stopTime="0.00" timeLoss="48.07" rerouteNo="0" devices="vehroute_32 tripinfo_32 fcd_32" vType="DEFAULT_VEHTYPE" speedFactor="1.01" vaporized=""/>
    <tripinfo id="34" depart="1123.00" departLane="a210_0" departPos="5.10" departSpeed="0.00" departDelay="0.46" arrival="1472.00" arrivalLane="b3[1]_0" arrivalPos="172.58" arrivalSpeed="13.16" duration="349.00" routeLength="2778.17" waitingTime="116.00" waitingCount="3" stopTime="0.00" timeLoss="146.61" rerouteNo="0" devices="vehroute_34 tripinfo_34 fcd_34" vType="DEFAULT_VEHTYPE" speedFactor="0.99" vaporized=""/>
    <tripinfo id="35" depart="1246.00" departLane="a210_0" departPos="5.10" departSpeed="0.00" departDelay="0.04" arrival="1510.00" arrivalLane="b3[1]_0" arrivalPos="172.58" arrivalSpeed="14.00" duration="264.00" routeLength="2778.17" waitingTime="37.00" waitingCount="2" stopTime="0.00" timeLoss="66.27" rerouteNo="0" devices="vehroute_35 tripinfo_35 fcd_35" vType="DEFAULT_VEHTYPE" speedFactor="1.02" vaporized=""/>
    <tripinfo id="37" depart="1324.00" departLane="a122_0" departPos="5.10" departSpeed="0.00" departDelay="0.07" arrival="1599.00" arrivalLane="b2[1][1][1]b_0" arrivalPos="325.74" arrivalSpeed="16.04" duration="275.00" routeLength="2658.69" waitingTime="61.00" waitingCount="5" stopTime="0.00" timeLoss="110.55" rerouteNo="0" devices="vehroute_37 tripinfo_37 fcd_37" vType="DEFAULT_VEHTYPE" speedFactor="1.18" vaporized=""/>
    <tripinfo id="38" depart="1371.00" departLane="a210_0" departPos="5.10" departSpeed="0.00" departDelay="0.76" arrival="1602.00" arrivalLane="b3[1]_0" arrivalPos="172.58" arrivalSpeed="14.71" duration="231.00" routeLength="2778.17" waitingTime="33.00" waitingCount="1" stopTime="0.00" timeLoss="49.01" rerouteNo="0" devices="vehroute_38 tripinfo_38 fcd_38" vType="DEFAULT_VEHTYPE" speedFactor="1.10" vaporized=""/>
    <tripinfo id="36" depart="1324.00" departLane="a210_0" departPos="5.10" departSpeed="0.00" departDelay="0.88" arrival="1604.00" arrivalLane="b3[1]_0" arrivalPos="172.58" arrivalSpeed="13.18" duration="280.00" routeLength="2772.92" waitingTime="42.00" waitingCount="2" stopTime="0.00" timeLoss="73.51" rerouteNo="0" devices="vehroute_36 tripinfo_36 fcd_36" vType="DEFAULT_VEHTYPE" speedFactor="0.97" vaporized=""/>
    <tripinfo id="42" depart="1499.00" departLane="a122_0" departPos="5.10" departSpeed="0.00" departDelay="0.85" arrival="1747.00" arrivalLane="b2[1][1][1]b_0" arrivalPos="325.74" arrivalSpeed="14.72" duration="248.00" routeLength="2654.20" waitingTime="32.00" waitingCount="3" stopTime="0.00" timeLoss="70.61" rerouteNo="0" devices="vehroute_42 tripinfo_42 fcd_42" vType="DEFAULT_VEHTYPE" speedFactor="1.09" vaporized=""/>
    <tripinfo id="40" depart="1451.00" departLane="a210_0" departPos="5.10" departSpeed="0.00" departDelay="0.27" arrival="1748.00" arrivalLane="b3[1]_0" arrivalPos="172.58" arrivalSpeed="14.24" duration="297.00" routeLength="2775.21" waitingTime="74.00" waitingCount="2" stopTime="0.00" timeLoss="101.57" rerouteNo="0" devices="vehroute_40 tripinfo_40 fcd_40" vType="DEFAULT_VEHTYPE" speedFactor="1.03" vaporized=""/>
    <tripinfo id="39" depart="1436.00" departLane="a210_0" departPos="5.10" departSpeed="0.00" departDelay="0.81" arrival="1749.00" arrivalLane="b3[1]_0" arrivalPos="172.58" arrivalSpeed="11.26" duration="313.00" routeLength="2772.92" waitingTime="59.00" waitingCount="2" stopTime="0.00" timeLoss="89.85" rerouteNo="0" devices="vehroute_39 tripinfo_39 fcd_39" vType="DEFAULT_VEHTYPE" speedFactor="0.90" vaporized=""/>
    <tripinfo id="43" depart="1534.00" departLane="a210_0" departPos="5.10" departSpeed="0.00" departDelay="0.10" arrival="1788.00" arrivalLane="b3[1]_0" arrivalPos="172.58" arrivalSpeed="14.25" duration="254.00" routeLength="2778.17" waitingTime="37.00" waitingCount="2" stopTime="0.00" timeLoss="60.13" rerouteNo="0" devices="vehroute_43 tripinfo_43 fcd_43" vType="DEFAULT_VEHTYPE" speedFactor="1.04" vaporized=""/>
    <tripinfo id="44" depart="1557.00" departLane="a210_0" departPos="5.10" departSpeed="0.00" departDelay="0.01" arrival="1788.00" arrivalLane="b3[1]_1" arrivalPos="172.58" arrivalSpeed="13.99" duration="231.00" routeLength="2772.92" waitingTime="21.00" waitingCount="1" stopTime="0.00" timeLoss="38.32" rerouteNo="0" devices="vehroute_44 tripinfo_44 fcd_44" vType="DEFAULT_VEHTYPE" speedFactor="1.04" vaporized=""/>
    <tripinfo id="41" depart="1491.00" departLane="a122_0" departPos="5.10" departSpeed="0.00" departDelay="0.13" arrival="1876.00" arrivalLane="b2[1][1][1]b_0" arrivalPos="325.74" arrivalSpeed="12.19" duration="385.00" routeLength="2657.16" waitingTime="140.00" waitingCount="5" stopTime="0.00" timeLoss="182.67" rerouteNo="0" devices="vehroute_41 tripinfo_41 fcd_41" vType="DEFAULT_VEHTYPE" speedFactor="0.96" vaporized=""/>
    <tripinfo id="45" depart="1583.00" departLane="a210_0" departPos="5.10" departSpeed="0.00" departDelay="0.76" arrival="1882.00" arrivalLane="b3[1]_0" arrivalPos="172.58" arrivalSpeed="14.24" duration="299.00" routeLength="2778.17" waitingTime="80.00" waitingCount="3" stopTime="0.00" timeLoss="114.31" rerouteNo="0" devices="vehroute_45 tripinfo_45 fcd_45" vType="DEFAULT_VEHTYPE" speedFactor="1.09" vaporized=""/>
    <tripinfo id="47" depart="1636.00" departLane="a210_0" departPos="5.10" departSpeed="0.00" departDelay="0.24" arrival="1929.00" arrivalLane="b3[1]_0" arrivalPos="172.58" arrivalSpeed="11.28" duration="293.00" routeLength="2775.21" waitingTime="45.00" waitingCount="2" stopTime="0.00" timeLoss="69.34" rerouteNo="0" devices="vehroute_47 tripinfo_47 fcd_47" vType="DEFAULT_VEHTYPE" speedFactor="0.90" vaporized=""/>
    <tripinfo id="48" depart="1656.00" departLane="a210_0" departPos="5.10" departSpeed="0.00" departDelay="0.72" arrival="1931.00" arrivalLane="b3[1]_1" arrivalPos="172.58" arrivalSpeed="10.91" duration="275.00" routeLength="2772.92" waitingTime="26.00" waitingCount="1" stopTime="0.00" timeLoss="46.12" rerouteNo="0" devices="vehroute_48 tripinfo_48 fcd_48" vType="DEFAULT_VEHTYPE" speedFactor="0.88" vaporized=""/>
    <tripinfo id="46" depart="1620.00" departLane="a122_0" departPos="5.10" departSpeed="0.00" departDelay="0.78" arrival="1999.00" arrivalLane="b2[1][1][1]b_0" arrivalPos="325.74" arrivalSpeed="12.64" duration="379.00" routeLength="2658.69" waitingTime="140.00" waitingCount="5" stopTime="0.00" timeLoss="184.23" rerouteNo="0" devices="vehroute_46 tripinfo_46 fcd_46" vType="DEFAULT_VEHTYPE" speedFactor="1.00" vaporized=""/>
    <tripinfo id="49" depart="1733.00" departLane="a210_0" departPos="5.10" departSpeed="0.00" departDelay="0.16" arrival="2052.00" arrivalLane="b3[1]_0" arrivalPos="172.58" arrivalSpeed="11.09" duration="319.00" routeLength="2778.17" waitingTime="51.00" waitingCount="2" stopTime="0.00" timeLoss="82.03" rerouteNo="0" devices="vehroute_49 tripinfo_49 fcd_49" vType="DEFAULT_VEHTYPE" speedFactor="0.85" vaporized=""/>
    <tripinfo id="51" depart="1757.00" departLane="a122_0" departPos="5.10" departSpeed="0.00" departDelay="0.73" arrival="2078.00" arrivalLane="b2[1][1][1]b_0" arrivalPos="325.74" arrivalSpeed="15.36" duration="321.00" routeLength="2654.20" waitingTime="113.00" waitingCount="4" stopTime="0.00" timeLoss="155.10" rerouteNo="0" devices="vehroute_51 tripinfo_51 fcd_51" vType="DEFAULT_VEHTYPE" speedFactor="1.17" vaporized=""/>
    <tripinfo id="55" depart="1834.00" departLane="a122_0" departPos="5.10" departSpeed="0.00" departDelay="0.08" arrival="2125.00" arrivalLane="b2[1][1][1]b_0" arrivalPos="325.74" arrivalSpeed="13.74" duration="291.00" routeLength="2661.65" waitingTime="55.00" waitingCount="4" stopTime="0.00" timeLoss="96.21" rerouteNo="0" devices="vehroute_55 tripinfo_55 fcd_55" vType="DEFAULT_VEHTYPE" speedFactor="1.00" vaporized=""/>
    <tripinfo id="50" depart="1754.00" departLane="a122_0" departPos="5.10" departSpeed="0.00" departDelay="0.58" arrival="2129.00" arrivalLane="b2[1][1][1]b_0" arrivalPos="325.74" arrivalSpeed="11.73" duration="375.00" routeLength="2658.69" waitingTime="104.00" waitingCount="4" stopTime="0.00" timeLoss="148.17" rerouteNo="0" devices="vehroute_50 tripinfo_50 fcd_50" vType="DEFAULT_VEHTYPE" speedFactor="0.85" vaporized=""/>
    <tripinfo id="53" depart="1810.00" departLane="a210_0" departPos="5.10" departSpeed="0.00" departDelay="0.76" arrival="2174.00" arrivalLane="b3[1]_1" arrivalPos="172.58" arrivalSpeed="15.19" duration="364.00" routeLength="2772.92" waitingTime="138.00" waitingCount="5" stopTime="0.00" timeLoss="180.38" rerouteNo="0" devices="vehroute_53 tripinfo_53 fcd_53" vType="DEFAULT_VEHTYPE" speedFactor="1.10" vaporized=""/>
    <tripinfo id="57" depart="1928.00" departLane="a210_0" departPos="5.10" departSpeed="0.00" departDelay="0.88" arrival="2174.00" arrivalLane="b3[1]_0" arrivalPos="172.58" arrivalSpeed="15.53" duration="246.00" routeLength="2778.17" waitingTime="38.00" waitingCount="2" stopTime="0.00" timeLoss="69.34" rerouteNo="0" devices="vehroute_57 tripinfo_57 fcd_57" vType="DEFAULT_VEHTYPE" speedFactor="1.14" vaporized=""/>
    <tripinfo id="52" depart="1790.00" departLane="a210_0" departPos="5.10" departSpeed="0.00" departDelay="0.93" arrival="2176.00" arrivalLane="b3[1]_1" arrivalPos="172.58" arrivalSpeed="13.16" duration="386.00" routeLength="2772.92" waitingTime="138.00" waitingCount="5" stopTime="0.00" timeLoss="188.70" rerouteNo="0" devices="vehroute_52 tripinfo_52 fcd_52" vType="DEFAULT_VEHTYPE" speedFactor="1.02" vaporized=""/>
    <tripinfo id="54" depart="1823.00" departLane="a210_0" departPos="5.10" departSpeed="0.00" departDelay="0.89" arrival="2177.00" arrivalLane="b3[1]_0" arrivalPos="172.58" arrivalSpeed="13.69" duration="354.00" routeLength="2775.21" waitingTime="112.00" waitingCount="5" stopTime="0.00" timeLoss="153.34" rerouteNo="0" devices="vehroute_54 tripinfo_54 fcd_54" vType="DEFAULT_VEHTYPE" speedFactor="1.00" vaporized=""/>
    <tripinfo id="56" depart="1898.00" departLane="a210_0" departPos="5.10" departSpeed="0.00" departDelay="0.65" arrival="2181.00" arrivalLane="b3[1]_0" arrivalPos="172.58" arrivalSpeed="11.48" duration="283.00" routeLength="2775.21" waitingTime="19.00" waitingCount="1" stopTime="0.00" timeLoss="58.96" rerouteNo="0" devices="vehroute_56 tripinfo_56 fcd_56" vType="DEFAULT_VEHTYPE" speedFactor="0.90" vaporized=""/>
    <tripinfo id="59" depart="1979.00" departLane="a122_0" departPos="5.10" departSpeed="0.00" departDelay="0.69" arrival="2250.00" arrivalLane="b2[1][1][1]b_0" arrivalPos="325.74" arrivalSpeed="13.45" duration="271.00" routeLength="2657.16" waitingTime="40.00" waitingCount="2" stopTime="0.00" timeLoss="71.13" rerouteNo="0" devices="vehroute_59 tripinfo_59 fcd_59" vType="DEFAULT_VEHTYPE" speedFactor="0.97" vaporized=""/>
    <tripinfo id="58" depart="1973.00" departLane="a210_0" departPos="5.10" departSpeed="0.00" departDelay="0.35" arrival="2328.00" arrivalLane="b3[1]_0" arrivalPos="172.58" arrivalSpeed="13.53" duration="355.00" routeLength="2778.17" waitingTime="117.00" waitingCount="5" stopTime="0.00" timeLoss="157.99" rerouteNo="0" devices="vehroute_58 tripinfo_58 fcd_58" vType="DEFAULT_VEHTYPE" speedFactor="1.02" vaporized=""/>
    <tripinfo id="60" depart="2183.00" departLane="a122_0" departPos="5.10" departSpeed="0.00" departDelay="0.49" arrival="2465.00" arrivalLane="b2[1][1][1]b_0" arrivalPos="325.74" arrivalSpeed="14.20" duration="282.00" routeLength="2657.16" waitingTime="72.00" waitingCount="2" stopTime="0.00" timeLoss="102.41" rerouteNo="0" devices="vehroute_60 tripinfo_60 fcd_60" vType="DEFAULT_VEHTYPE" speedFactor="1.08" vaporized=""/>
    <tripinfo id="61" depart="2215.00" departLane="a210_0" departPos="5.10" departSpeed="0.00" departDelay="0.21" arrival="2471.00" arrivalLane="b3[1]_0" arrivalPos="172.58" arrivalSpeed="15.39" duration="256.00" routeLength="2778.17" waitingTime="38.00" waitingCount="3" stopTime="0.00" timeLoss="76.54" rerouteNo="0" devices="vehroute_61 tripinfo_61 fcd_61" vType="DEFAULT_VEHTYPE" speedFactor="1.12" vaporized=""/>
    <tripinfo id="62" depart="2231.00" departLane="a210_0" departPos="5.10" departSpeed="0.00" departDelay="0.48" arrival="2472.00" arrivalLane="b3[1]_0" arrivalPos="172.58" arrivalSpeed="13.03" duration="241.00" routeLength="2772.92" waitingTime="25.00" waitingCount="1" stopTime="0.00" timeLoss="43.01" rerouteNo="0" devices="vehroute_62 tripinfo_62 fcd_62" vType="DEFAULT_VEHTYPE" speedFactor="1.02" vaporized=""/>
    <tripinfo id="63" depart="2247.00" departLane="a210_0" departPos="5.10" departSpeed="0.00" departDelay="0.97" arrival="2498.00" arrivalLane="b3[1]_0" arrivalPos="172.58" arrivalSpeed="13.07" duration="251.00" routeLength="2778.17" waitingTime="29.00" waitingCount="1" stopTime="0.00" timeLoss="46.92" rerouteNo="0" devices="vehroute_63 tripinfo_63 fcd_63" vType="DEFAULT_VEHTYPE" speedFactor="0.99" vaporized=""/>
    <tripinfo id="66" depart="2341.00" departLane="a122_0" departPos="5.10" departSpeed="0.00" departDelay="0.28" arrival="2608.00" arrivalLane="b2[1][1][1]b_0" arrivalPos="325.74" arrivalSpeed="11.68" duration="267.00" routeLength="2654.20" waitingTime="25.00" waitingCount="2" stopTime="0.00" timeLoss="54.32" rerouteNo="0" devices="vehroute_66 tripinfo_66 fcd_66" vType="DEFAULT_VEHTYPE" speedFactor="0.91" vaporized=""/>
    <tripinfo id="64" depart="2307.00" departLane="a210_0" departPos="5.10" departSpeed="0.00" departDelay="0.03" arrival="2615.00" arrivalLane="b3[1]_0" arrivalPos="172.58" arrivalSpeed="13.02" duration="308.00" routeLength="2775.21" waitingTime="53.00" waitingCount="5" stopTime="0.00" timeLoss="93.93" rerouteNo="0" devices="vehroute_64 tripinfo_64 fcd_64" vType="DEFAULT_VEHTYPE" speedFactor="0.94" vaporized=""/>
    <tripinfo id="65" depart="2310.00" departLane="a210_0" departPos="5.10" departSpeed="0.00" departDelay="2.50" arrival="2616.00" arrivalLane="b3[1]_1" arrivalPos="172.58" arrivalSpeed="11.08" duration="306.00" routeLength="2772.92" waitingTime="46.00" waitingCount="3" stopTime="0.00" timeLoss="78.39" rerouteNo="0" devices="vehroute_65 tripinfo_65 fcd_65" vType="DEFAULT_VEHTYPE" speedFactor="0.88" vaporized=""/>