<?xml version="1.0" encoding="UTF-8"?>

<!-- generated on 2025-03-21 17:45:54 by Eclipse SUMO sumo Version 1.21.0
<sumoConfiguration xmlns:xsi="http://www.w3.org/2001/XMLSchema-instance" xsi:noNamespaceSchemaLocation="http://sumo.dlr.de/xsd/sumoConfiguration.xsd">

    <input>
        <net-file value="${STATICPATH}/joined_lanes.net.xml"/>
        <route-files value="${SIMULATIONPATH}/generatedRoutes.rou.xml"/>
        <additional-files value="${STATICPATH}/detectors.add.xml,${STATICPATH}/joined_vtypes.add.xml,${STATICPATH}/joined_tls.add.xml"/>
    </input>

    <output>
        <fcd-output value="${SIMULATIONPATH}/fcd.xml"/>
        <queue-output value="${SIMULATIONPATH}/queue.xml"/>
        <summary-output value="${SIMULATIONPATH}/summary.xml"/>
        <tripinfo-output value="${SIMULATIONPATH}/tripinfos.xml"/>
        <vehroute-output value="${SIMULATIONPATH}/vehroute.xml"/>
        <save-state.prefix value="configs\state"/>
    </output>

    <processing>
        <ignore-junction-blocker value="1"/>
        <ignore-route-errors value="true"/>
        <time-to-teleport value="-1"/>
    </processing>

    <report>
        <log value="C:/Users/fabio/Desktop/sumo_log.txt"/>
        <no-step-log value="true"/>
    </report>

    <emissions>
        <phemlight-path value="configs\./PHEMlight/"/>
    </emissions>

    <traci_server>
        <remote-port value="60146"/>
    </traci_server>

</sumoConfiguration>
-->

<routes xmlns:xsi="http://www.w3.org/2001/XMLSchema-instance" xsi:noNamespaceSchemaLocation="http://sumo.dlr.de/xsd/routes_file.xsd">
    <vehicle id="0" depart="40.00" arrival="362.00">
        <route edges="a122 a1b a1 a204a[0] a124 b12 b50[0] b50[1] b50[1]a a181 a18 a17 a71 b2[0] b2[1][0] b2[1][1][0] b2[1][1][1] b2[1][1][1]b"/>
    </vehicle>

    <vehicle id="2" depart="70.00" arrival="367.00">
        <route edges="a122 a1b a1 a204a[0] a124 b12 b50[0] b50[1] b50[1]a a181 a18 a17 a71 b2[0] b2[1][0] b2[1][1][0] b2[1][1][1] b2[1][1][1]b"/>
    </vehicle>

    <vehicle id="1" depart="44.00" arrival="371.00">
        <route edges="a122 a1b a1 a204a[0] a124 b12 b50[0] b50[1] b50[1]a a181 a18 a17 a71 b2[0] b2[1][0] b2[1][1][0] b2[1][1][1] b2[1][1][1]b"/>
    </vehicle>

    <vehicle id="3" depart="93.00" arrival="403.00">
        <route edges="a210 a43[0] a43[1] a201 a201c a204a[0] a124 b12 b56[0] b56[1][0] b56[1][1] b5[1][0]+66 b5[1][1][1] b8 b3[1]"/>
    </vehicle>

    <vehicle id="6" depart="221.00" arrival="486.00">
        <route edges="a122 a1b a1 a204a[0] a124 b12 b50[0] b50[1] b50[1]a a181 a18 a17 a71 b2[0] b2[1][0] b2[1][1][0] b2[1][1][1] b2[1][1][1]b"/>
    </vehicle>

    <vehicle id="5" depart="210.00" arrival="503.00">
        <route edges="a122 a1b a1 a204a[0] a124 b12 b50[0] b50[1] b50[1]a a181 a18 a17 a71 b2[0] b2[1][0] b2[1][1][0] b2[1][1][1] b2[1][1][1]b"/>
    </vehicle>

    <vehicle id="4" depart="209.00" arrival="562.00">
        <route edges="a210 a43[0] a43[1] a201 a201c a204a[0] a124 b12 b56[0] b56[1][0] b56[1][1] b5[1][0]+66 b5[1][1][1] b8 b3[1]"/>
    </vehicle>

    <vehicle id="8" depart="246.00" arrival="562.00">
        <route edges="a210 a43[0] a43[1] a201 a201c a204a[0] a124 b12 b56[0] b56[1][0] b56[1][1] b5[1][0]+66 b5[1][1][1] b8 b3[1]"/>
    </vehicle>

    <vehicle id="7" depart="225.00" arrival="566.00">
        <route edges="a210 a43[0] a43[1] a201 a201c a204a[0] a124 b12 b56[0] b56[1][0] b56[1][1] b5[1][0]+66 b5[1][1][1] b8 b3[1]"/>
    </vehicle>

    <vehicle id="10" depart="364.00" arrival="618.00">
        <route edges="a122 a1b a1 a204a[0] a124 b12 b50[0] b50[1] b50[1]a a181 a18 a17 a71 b2[0] b2[1][0] b2[1][1][0] b2[1][1][1] b2[1][1][1]b"/>
    </vehicle>

    <vehicle id="9" depart="292.00" arrival="623.00">
        <route edges="a122 a1b a1 a204a[0] a124 b12 b50[0] b50[1] b50[1]a a181 a18 a17 a71 b2[0] b2[1][0] b2[1][1][0] b2[1][1][1] b2[1][1][1]b"/>
    </vehicle>

    <vehicle id="13" depart="419.00" arrival="703.00">
        <route edges="a210 a43[0] a43[1] a201 a201c a204a[0] a124 b12 b56[0] b56[1][0] b56[1][1] b5[1][0]+66 b5[1][1][1] b8 b3[1]"/>
    </vehicle>

    <vehicle id="11" depart="381.00" arrival="704.00">
        <route edges="a210 a43[0] a43[1] a201 a201c a204a[0] a124 b12 b56[0] b56[1][0] b56[1][1] b5[1][0]+66 b5[1][1][1] b8 b3[1]"/>
    </vehicle>

    <vehicle id="14" depart="437.00" arrival="711.00">
        <route edges="a210 a43[0] a43[1] a201 a201c a204a[0] a124 b12 b56[0] b56[1][0] b56[1][1] b5[1][0]+66 b5[1][1][1] b8 b3[1]"/>
    </vehicle>

    <vehicle id="16" depart="478.00" arrival="730.00">
        <route edges="a210 a43[0] a43[1] a201 a201c a204a[0] a124 b12 b56[0] b56[1][0] b56[1][1] b5[1][0]+66 b5[1][1][1] b8 b3[1]"/>
    </vehicle>

    <vehicle id="12" depart="396.00" arrival="744.00">
        <route edges="a122 a1b a1 a204a[0] a124 b12 b50[0] b50[1] b50[1]a a181 a18 a17 a71 b2[0] b2[1][0] b2[1][1][0] b2[1][1][1] b2[1][1][1]b"/>
    </vehicle>

    <vehicle id="15" depart="471.00" arrival="747.00">
        <route edges="a122 a1b a1 a204a[0] a124 b12 b50[0] b50[1] b50[1]a a181 a18 a17 a71 b2[0] b2[1][0] b2[1][1][0] b2[1][1][1] b2[1][1][1]b"/>
    </vehicle>

    <vehicle id="19" depart="513.00" arrival="865.00">
        <route edges="a210 a43[0] a43[1] a201 a201c a204a[0] a124 b12 b56[0] b56[1][0] b56[1][1] b5[1][0]+66 b5[1][1][1] b8 b3[1]"/>
    </vehicle>

    <vehicle id="18" depart="494.00" arrival="867.00">
        <route edges="a210 a43[0] a43[1] a201 a201c a204a[0] a124 b12 b56[0] b56[1][0] b56[1][1] b5[1][0]+66 b5[1][1][1] b8 b3[1]"/>
    </vehicle>

    <vehicle id="22" depart="625.00" arrival="869.00">
        <route edges="a210 a43[0] a43[1] a201 a201c a204a[0] a124 b12 b56[0] b56[1][0] b56[1][1] b5[1][0]+66 b5[1][1][1] b8 b3[1]"/>
    </vehicle>

    <vehicle id="17" depart="487.00" arrival="870.00">
        <route edges="a210 a43[0] a43[1] a201 a201c a204a[0] a124 b12 b56[0] b56[1][0] b56[1][1] b5[1][0]+66 b5[1][1][1] b8 b3[1]"/>
    </vehicle>

    <vehicle id="20" depart="527.00" arrival="870.00">
        <route edges="a122 a1b a1 a204a[0] a124 b12 b50[0] b50[1] b50[1]a a181 a18 a17 a71 b2[0] b2[1][0] b2[1][1][0] b2[1][1][1] b2[1][1][1]b"/>
    </vehicle>

    <vehicle id="21" depart="548.00" arrival="870.00">
        <route edges="a122 a1b a1 a204a[0] a124 b12 b50[0] b50[1] b50[1]a a181 a18 a17 a71 b2[0] b2[1][0] b2[1][1][0] b2[1][1][1] b2[1][1][1]b"/>
    </vehicle>

    <vehicle id="23" depart="630.00" arrival="873.00">
        <route edges="a210 a43[0] a43[1] a201 a201c a204a[0] a124 b12 b56[0] b56[1][0] b56[1][1] b5[1][0]+66 b5[1][1][1] b8 b3[1]"/>
    </vehicle>

    <vehicle id="27" depart="778.00" arrival="1035.00">
        <route edges="a210 a43[0] a43[1] a201 a201c a204a[0] a124 b12 b56[0] b56[1][0] b56[1][1] b5[1][0]+66 b5[1][1][1] b8 b3[1]"/>
    </vehicle>

    <vehicle id="24" depart="701.00" arrival="1038.00">
        <route edges="a210 a43[0] a43[1] a201 a201c a204a[0] a124 b12 b56[0] b56[1][0] b56[1][1] b5[1][0]+66 b5[1][1][1] b8 b3[1]"/>
    </vehicle>

    <vehicle id="25" depart="751.00" arrival="1039.00">
        <route edges="a210 a43[0] a43[1] a201 a201c a204a[0] a124 b12 b56[0] b56[1][0] b56[1][1] b5[1][0]+66 b5[1][1][1] b8 b3[1]"/>
    </vehicle>

    <vehicle id="26" depart="775.00" arrival="1040.00">
        <route edges="a210 a43[0] a43[1] a201 a201c a204a[0] a124 b12 b56[0] b56[1][0] b56[1][1] b5[1][0]+66 b5[1][1][1] b8 b3[1]"/>
    </vehicle>

    <vehicle id="30" depart="936.00" arrival="1159.00">
        <route edges="a210 a43[0] a43[1] a201 a201c a204a[0] a124 b12 b56[0] b56[1][0] b56[1][1] b5[1][0]+66 b5[1][1][1] b8 b3[1]"/>
    </vehicle>

    <vehicle id="28" depart="862.00" arrival="1160.00">
        <route edges="a210 a43[0] a43[1] a201 a201c a204a[0] a124 b12 b56[0] b56[1][0] b56[1][1] b5[1][0]+66 b5[1][1][1] b8 b3[1]"/>
    </vehicle>

    <vehicle id="29" depart="869.00" arrival="1232.00">
        <route edges="a122 a1b a1 a204a[0] a124 b12 b50[0] b50[1] b50[1]a a181 a18 a17 a71 b2[0] b2[1][0] b2[1][1][0] b2[1][1][1] b2[1][1][1]b"/>
    </vehicle>

    <vehicle id="33" depart="1103.00" arrival="1340.00">
        <route edges="a122 a1b a1 a204a[0] a124 b12 b50[0] b50[1] b50[1]a a181 a18 a17 a71 b2[0] b2[1][0] b2[1][1][0] b2[1][1][1] b2[1][1][1]b"/>
    </vehicle>

    <vehicle id="31" depart="1092.00" arrival="1341.00">
        <route edges="a122 a1b a1 a204a[0] a124 b12 b50[0] b50[1] b50[1]a a181 a18 a17 a71 b2[0] b2[1][0] b2[1][1][0] b2[1][1][1] b2[1][1][1]b"/>
    </vehicle>

    <vehicle id="32" depart="1097.00" arrival="1345.00">
        <route edges="a210 a43[0] a43[1] a201 a201c a204a[0] a124 b12 b56[0] b56[1][0] b56[1][1] b5[1][0]+66 b5[1][1][1] b8 b3[1]"/>
    </vehicle>

    <vehicle id="34" depart="1123.00" arrival="1472.00">
        <route edges="a210 a43[0] a43[1] a201 a201c a204a[0] a124 b12 b56[0] b56[1][0] b56[1][1] b5[1][0]+66 b5[1][1][1] b8 b3[1]"/>
    </vehicle>

    <vehicle id="35" depart="1246.00" arrival="1510.00">
        <route edges="a210 a43[0] a43[1] a201 a201c a204a[0] a124 b12 b56[0] b56[1][0] b56[1][1] b5[1][0]+66 b5[1][1][1] b8 b3[1]"/>
    </vehicle>

    <vehicle id="37" depart="1324.00" arrival="1599.00">
        <route edges="a122 a1b a1 a204a[0] a124 b12 b50[0] b50[1] b50[1]a a181 a18 a17 a71 b2[0] b2[1][0] b2[1][1][0] b2[1][1][1] b2[1][1][1]b"/>
    </vehicle>

    <vehicle id="38" depart="1371.00" arrival="1602.00">
        <route edges="a210 a43[0] a43[1] a201 a201c a204a[0] a124 b12 b56[0] b56[1][0] b56[1][1] b5[1][0]+66 b5[1][1][1] b8 b3[1]"/>
    </vehicle>

    <vehicle id="36" depart="1324.00" arrival="1604.00">
        <route edges="a210 a43[0] a43[1] a201 a201c a204a[0] a124 b12 b56[0] b56[1][0] b56[1][1] b5[1][0]+66 b5[1][1][1] b8 b3[1]"/>
    </vehicle>

    <vehicle id="42" depart="1499.00" arrival="1747.00">
        <route edges="a122 a1b a1 a204a[0] a124 b12 b50[0] b50[1] b50[1]a a181 a18 a17 a71 b2[0] b2[1][0] b2[1][1][0] b2[1][1][1] b2[1][1][1]b"/>
    </vehicle>

    <vehicle id="40" depart="1451.00" arrival="1748.00">
        <route edges="a210 a43[0] a43[1] a201 a201c a204a[0] a124 b12 b56[0] b56[1][0] b56[1][1] b5[1][0]+66 b5[1][1][1] b8 b3[1]"/>
    </vehicle>

    <vehicle id="39" depart="1436.00" arrival="1749.00">
        <route edges="a210 a43[0] a43[1] a201 a201c a204a[0] a124 b12 b56[0] b56[1][0] b56[1][1] b5[1][0]+66 b5[1][1][1] b8 b3[1]"/>
    </vehicle>

    <vehicle id="43" depart="1534.00" arrival="1788.00">
        <route edges="a210 a43[0] a43[1] a201 a201c a204a[0] a124 b12 b56[0] b56[1][0] b56[1][1] b5[1][0]+66 b5[1][1][1] b8 b3[1]"/>
    </vehicle>

    <vehicle id="44" depart="1557.00" arrival="1788.00">
        <route edges="a210 a43[0] a43[1] a201 a201c a204a[0] a124 b12 b56[0] b56[1][0] b56[1][1] b5[1][0]+66 b5[1][1][1] b8 b3[1]"/>
    </vehicle>

    <vehicle id="41" depart="1491.00" arrival="1876.00">
        <route edges="a122 a1b a1 a204a[0] a124 b12 b50[0] b50[1] b50[1]a a181 a18 a17 a71 b2[0] b2[1][0] b2[1][1][0] b2[1][1][1] b2[1][1][1]b"/>
    </vehicle>

    <vehicle id="45" depart="1583.00" arrival="1882.00">
        <route edges="a210 a43[0] a43[1] a201 a201c a204a[0] a124 b12 b56[0] b56[1][0] b56[1][1] b5[1][0]+66 b5[1][1][1] b8 b3[1]"/>
    </vehicle>

    <vehicle id="47" depart="1636.00" arrival="1929.00">
        <route edges="a210 a43[0] a43[1] a201 a201c a204a[0] a124 b12 b56[0] b56[1][0] b56[1][1] b5[1][0]+66 b5[1][1][1] b8 b3[1]"/>
    </vehicle>

    <vehicle id="48" depart="1656.00" arrival="1931.00">
        <route edges="a210 a43[0] a43[1] a201 a201c a204a[0] a124 b12 b56[0] b56[1][0] b56[1][1] b5[1][0]+66 b5[1][1][1] b8 b3[1]"/>
    </vehicle>

    <vehicle id="46" depart="1620.00" arrival="1999.00">
        <route edges="a122 a1b a1 a204a[0] a124 b12 b50[0] b50[1] b50[1]a a181 a18 a17 a71 b2[0] b2[1][0] b2[1][1][0] b2[1][1][1] b2[1][1][1]b"/>
    </vehicle>

    <vehicle id="49" depart="1733.00" arrival="2052.00">
        <route edges="a210 a43[0] a43[1] a201 a201c a204a[0] a124 b12 b56[0] b56[1][0] b56[1][1] b5[1][0]+66 b5[1][1][1] b8 b3[1]"/>
    </vehicle>

    <vehicle id="51" depart="1757.00" arrival="2078.00">
        <route edges="a122 a1b a1 a204a[0] a124 b12 b50[0] b50[1] b50[1]a a181 a18 a17 a71 b2[0] b2[1][0] b2[1][1][0] b2[1][1][1] b2[1][1][1]b"/>
    </vehicle>

    <vehicle id="55" depart="1834.00" arrival="2125.00">
        <route edges="a122 a1b a1 a204a[0] a124 b12 b50[0] b50[1] b50[1]a a181 a18 a17 a71 b2[0] b2[1][0] b2[1][1][0] b2[1][1][1] b2[1][1][1]b"/>
    </vehicle>

    <vehicle id="50" depart="1754.00" arrival="2129.00">
        <route edges="a122 a1b a1 a204a[0] a124 b12 b50[0] b50[1] b50[1]a a181 a18 a17 a71 b2[0] b2[1][0] b2[1][1][0] b2[1][1][1] b2[1][1][1]b"/>
    </vehicle>

    <vehicle id="53" depart="1810.00" arrival="2174.00">
        <route edges="a210 a43[0] a43[1] a201 a201c a204a[0] a124 b12 b56[0] b56[1][0] b56[1][1] b5[1][0]+66 b5[1][1][1] b8 b3[1]"/>
    </vehicle>

    <vehicle id="57" depart="1928.00" arrival="2174.00">
        <route edges="a210 a43[0] a43[1] a201 a201c a204a[0] a124 b12 b56[0] b56[1][0] b56[1][1] b5[1][0]+66 b5[1][1][1] b8 b3[1]"/>
    </vehicle>

    <vehicle id="52" depart="1790.00" arrival="2176.00">
        <route edges="a210 a43[0] a43[1] a201 a201c a204a[0] a124 b12 b56[0] b56[1][0] b56[1][1] b5[1][0]+66 b5[1][1][1] b8 b3[1]"/>
    </vehicle>

    <vehicle id="54" depart="1823.00" arrival="2177.00">
        <route edges="a210 a43[0] a43[1] a201 a201c a204a[0] a124 b12 b56[0] b56[1][0] b56[1][1] b5[1][0]+66 b5[1][1][1] b8 b3[1]"/>
    </vehicle>

    <vehicle id="56" depart="1898.00" arrival="2181.00">
        <route edges="a210 a43[0] a43[1] a201 a201c a204a[0] a124 b12 b56[0] b56[1][0] b56[1][1] b5[1][0]+66 b5[1][1][1] b8 b3[1]"/>
    </vehicle>

    <vehicle id="59" depart="1979.00" arrival="2250.00">
        <route edges="a122 a1b a1 a204a[0] a124 b12 b50[0] b50[1] b50[1]a a181 a18 a17 a71 b2[0] b2[1][0] b2[1][1][0] b2[1][1][1] b2[1][1][1]b"/>
    </vehicle>

    <vehicle id="58" depart="1973.00" arrival="2328.00">
        <route edges="a210 a43[0] a43[1] a201 a201c a204a[0] a124 b12 b56[0] b56[1][0] b56[1][1] b5[1][0]+66 b5[1][1][1] b8 b3[1]"/>
    </vehicle>

    <vehicle id="60" depart="2183.00" arrival="2465.00">
        <route edges="a122 a1b a1 a204a[0] a124 b12 b50[0] b50[1] b50[1]a a181 a18 a17 a71 b2[0] b2[1][0] b2[1][1][0] b2[1][1][1] b2[1][1][1]b"/>
    </vehicle>

    <vehicle id="61" depart="2215.00" arrival="2471.00">
        <route edges="a210 a43[0] a43[1] a201 a201c a204a[0] a124 b12 b56[0] b56[1][0] b56[1][1] b5[1][0]+66 b5[1][1][1] b8 b3[1]"/>
    </vehicle>

    <vehicle id="62" depart="2231.00" arrival="2472.00">
        <route edges="a210 a43[0] a43[1] a201 a201c a204a[0] a124 b12 b56[0] b56[1][0] b56[1][1] b5[1][0]+66 b5[1][1][1] b8 b3[1]"/>
    </vehicle>

    <vehicle id="63" depart="2247.00" arrival="2498.00">
        <route edges="a210 a43[0] a43[1] a201 a201c a204a[0] a124 b12 b56[0] b56[1][0] b56[1][1] b5[1][0]+66 b5[1][1][1] b8 b3[1]"/>
    </vehicle>

    <vehicle id="66" depart="2341.00" arrival="2608.00">
        <route edges="a122 a1b a1 a204a[0] a124 b12 b50[0] b50[1] b50[1]a a181 a18 a17 a71 b2[0] b2[1][0] b2[1][1][0] b2[1][1][1] b2[1][1][1]b"/>
    </vehicle>

    <vehicle id="64" depart="2307.00" arrival="2615.00">
        <route edges="a210 a43[0] a43[1] a201 a201c a204a[0] a124 b12 b56[0] b56[1][0] b56[1][1] b5[1][0]+66 b5[1][1][1] b8 b3[1]"/>
    </vehicle>

    <vehicle id="65" depart="2310.00" arrival="2616.00">
        <route edges="a210 a43[0] a43[1] a201 a201c a204a[0] a124 b12 b56[0] b56[1][0] b56[1][1] b5[1][0]+66 b5[1][1][1] b8 b3[1]"/>
    </vehicle>

    <vehicle id="68" depart="2502.00" arrival="2718.00">
        <route edges="a122 a1b a1 a204a[0] a124 b12 b50[0] b50[1] b50[1]a a181 a18 a17 a71 b2[0] b2[1][0] b2[1][1][0] b2[1][1][1] b2[1][1][1]b"/>
    </vehicle>

    <vehicle id="69" depart="2503.00" arrival="2767.00">
        <route edges="a210 a43[0] a43[1] a201 a201c a204a[0] a124 b12 b56[0] b56[1][0] b56[1][1] b5[1][0]+66 b5[1][1][1] b8 b3[1]"/>
    </vehicle>

    <vehicle id="67" depart="2492.00" arrival="2782.00">
        <route edges="a210 a43[0] a43[1] a201 a201c a204a[0] a124 b12 b56[0] b56[1][0] b56[1][1] b5[1][0]+66 b5[1][1][1] b8 b3[1]"/>
    </vehicle>

    <vehicle id="70" depart="2642.00" arrival="2944.00">
        <route edges="a210 a43[0] a43[1] a201 a201c a204a[0] a124 b12 b56[0] b56[1][0] b56[1][1] b5[1][0]+66 b5[1][1][1] b8 b3[1]"/>
    </vehicle>

    <vehicle id="71" depart="2738.00" arrival="3076.00">
        <route edges="a210 a43[0] a43[1] a201 a201c a204a[0] a124 b12 b56[0] b56[1][0] b56[1][1] b5[1][0]+66 b5[1][1][1] b8 b3[1]"/>
    </vehicle>

    <vehicle id="73" depart="2770.00" arrival="3076.00">
        <route edges="a210 a43[0] a43[1] a201 a201c a204a[0] a124 b12 b56[0] b56[1][0] b56[1][1] b5[1][0]+66 b5[1][1][1] b8 b3[1]"/>
    </vehicle>

    <vehicle id="74" depart="2811.00" arrival="3079.00">
        <route edges="a210 a43[0] a43[1] a201 a201c a204a[0] a124 b12 b56[0] b56[1][0] b56[1][1] b5[1][0]+66 b5[1][1][1] b8 b3[1]"/>
    </vehicle>

    <vehicle id="72" depart="2754.00" arrival="3080.00">
        <route edges="a210 a43[0] a43[1] a201 a201c a204a[0] a124 b12 b56[0] b56[1][0] b56[1][1] b5[1][0]+66 b5[1][1][1] b8 b3[1]"/>
    </vehicle>

    <vehicle id="75" depart="2845.00" arrival="3082.00">
        <route edges="a210 a43[0] a43[1] a201 a201c a204a[0] a124 b12 b56[0] b56[1][0] b56[1][1] b5[1][0]+66 b5[1][1][1] b8 b3[1]"/>
    </vehicle>

    <vehicle id="81" depart="2980.00" arrival="3207.00">
        <route edges="a122 a1b a1 a204a[0] a124 b12 b50[0] b50[1] b50[1]a a181 a18 a17 a71 b2[0] b2[1][0] b2[1][1][0] b2[1][1][1] b2[1][1][1]b"/>
    </vehicle>

    <vehicle id="76" depart="2886.00" arrival="3215.00">
        <route edges="a210 a43[0] a43[1] a201 a201c a204a[0] a124 b12 b56[0] b56[1][0] b56[1][1] b5[1][0]+66 b5[1][1][1] b8 b3[1]"/>
    </vehicle>

    <vehicle id="77" depart="2902.00" arrival="3215.00">
        <route edges="a210 a43[0] a43[1] a201 a201c a204a[0] a124 b12 b56[0] b56[1][0] b56[1][1] b5[1][0]+66 b5[1][1][1] b8 b3[1]"/>
    </vehicle>

    <vehicle id="78" depart="2931.00" arrival="3217.00">
        <route edges="a210 a43[0] a43[1] a201 a201c a204a[0] a124 b12 b56[0] b56[1][0] b56[1][1] b5[1][0]+66 b5[1][1][1] b8 b3[1]"/>
    </vehicle>

    <vehicle id="79" depart="2943.00" arrival="3217.00">
        <route edges="a210 a43[0] a43[1] a201 a201c a204a[0] a124 b12 b56[0] b56[1][0] b56[1][1] b5[1][0]+66 b5[1][1][1] b8 b3[1]"/>
    </vehicle>

    <vehicle id="80" depart="2961.00" arrival="3219.00">
        <route edges="a210 a43[0] a43[1] a201 a201c a204a[0] a124 b12 b56[0] b56[1][0] b56[1][1] b5[1][0]+66 b5[1][1][1] b8 b3[1]"/>
    </vehicle>

    <vehicle id="84" depart="3104.00" arrival="3359.00">
        <route edges="a210 a43[0] a43[1] a201 a201c a204a[0] a124 b12 b56[0] b56[1][0] b56[1][1] b5[1][0]+66 b5[1][1][1] b8 b3[1]"/>
    </vehicle>

    <vehicle id="82" depart="3040.00" arrival="3446.00">
        <route edges="a122 a1b a1 a204a[0] a124 b12 b50[0] b50[1] b50[1]a a181 a18 a17 a71 b2[0] b2[1][0] b2[1][1][0] b2[1][1][1] b2[1][1][1]b"/>
    </vehicle>

    <vehicle id="87" depart="3192.00" arrival="3446.00">
        <route edges="a122 a1b a1 a204a[0] a124 b12 b50[0] b50[1] b50[1]a a181 a18 a17 a71 b2[0] b2[1][0] b2[1][1][0] b2[1][1][1] b2[1][1][1]b"/>
    </vehicle>

    <vehicle id="83" depart="3066.00" arrival="3448.00">
        <route edges="a122 a1b a1 a204a[0] a124 b12 b50[0] b50[1] b50[1]a a181 a18 a17 a71 b2[0] b2[1][0] b2[1][1][0] b2[1][1][1] b2[1][1][1]b"/>
    </vehicle>

    <vehicle id="85" depart="3125.00" arrival="3450.00">
        <route edges="a122 a1b a1 a204a[0] a124 b12 b50[0] b50[1] b50[1]a a181 a18 a17 a71 b2[0] b2[1][0] b2[1][1][0] b2[1][1][1] b2[1][1][1]b"/>
    </vehicle>

    <vehicle id="86" depart="3161.00" arrival="3511.00">
        <route edges="a210 a43[0] a43[1] a201 a201c a204a[0] a124 b12 b56[0] b56[1][0] b56[1][1] b5[1][0]+66 b5[1][1][1] b8 b3[1]"/>
    </vehicle>

    <vehicle id="90" depart="3351.00" arrival="3575.00">
        <route edges="a122 a1b a1 a204a[0] a124 b12 b50[0] b50[1] b50[1]a a181 a18 a17 a71 b2[0] b2[1][0] b2[1][1][0] b2[1][1][1] b2[1][1][1]b"/>
    </vehicle>

    <vehicle id="88" depart="3310.00" arrival="3659.00">
        <route edges="a210 a43[0] a43[1] a201 a201c a204a[0] a124 b12 b56[0] b56[1][0] b56[1][1] b5[1][0]+66 b5[1][1][1] b8 b3[1]"/>
    </vehicle>

    <vehicle id="89" depart="3322.00" arrival="3659.00">
        <route edges="a210 a43[0] a43[1] a201 a201c a204a[0] a124 b12 b56[0] b56[1][0] b56[1][1] b5[1][0]+66 b5[1][1][1] b8 b3[1]"/>
    </vehicle>

    <vehicle id="94" depart="3513.00" arrival="3805.00">
        <route edges="a122 a1b a1 a204a[0] a124 b12 b50[0] b50[1] b50[1]a a181 a18 a17 a71 b2[0] b2[1][0] b2[1][1][0] b2[1][1][1] b2[1][1][1]b"/>
    </vehicle>

    <vehicle id="95" depart="3514.00" arrival="3812.00">
        <route edges="a210 a43[0] a43[1] a201 a201c a204a[0] a124 b12 b56[0] b56[1][0] b56[1][1] b5[1][0]+66 b5[1][1][1] b8 b3[1]"/>
    </vehicle>

    <vehicle id="93" depart="3477.00" arrival="3814.00">
        <route edges="a210 a43[0] a43[1] a201 a201c a204a[0] a124 b12 b56[0] b56[1][0] b56[1][1] b5[1][0]+66 b5[1][1][1] b8 b3[1]"/>
    </vehicle>

    <vehicle id="99" depart="3589.00" arrival="3814.00">
        <route edges="a210 a43[0] a43[1] a201 a201c a204a[0] a124 b12 b56[0] b56[1][0] b56[1][1] b5[1][0]+66 b5[1][1][1] b8 b3[1]"/>
    </vehicle>

    <vehicle id="96" depart="3542.00" arrival="3815.00">
        <route edges="a122 a1b a1 a204a[0] a124 b12 b50[0] b50[1] b50[1]a a181 a18 a17 a71 b2[0] b2[1][0] b2[1][1][0] b2[1][1][1] b2[1][1][1]b"/>
    </vehicle>

    <vehicle id="91" depart="3455.00" arrival="3816.00">
        <route edges="a210 a43[0] a43[1] a201 a201c a204a[0] a124 b12 b56[0] b56[1][0] b56[1][1] b5[1][0]+66 b5[1][1][1] b8 b3[1]"/>
    </vehicle>

    <vehicle id="98" depart="3582.00" arrival="3818.00">
        <route edges="a210 a43[0] a43[1] a201 a201c a204a[0] a124 b12 b56[0] b56[1][0] b56[1][1] b5[1][0]+66 b5[1][1][1] b8 b3[1]"/>
    </vehicle>

    <vehicle id="92" depart="3468.00" arrival="3820.00">
        <route edges="a210 a43[0] a43[1] a201 a201c a204a[0] a124 b12 b56[0] b56[1][0] b56[1][1] b5[1][0]+66 b5[1][1][1] b8 b3[1]"/>
    </vehicle>

    <vehicle id="97" depart="3572.00" arrival="3829.00">
        <route edges="a210 a43[0] a43[1] a201 a201c a204a[0] a124 b12 b56[0] b56[1][0] b56[1][1] b5[1][0]+66 b5[1][1][1] b8 b3[1]"/>
    </vehicle>

</routes>
