<?xml version="1.0" encoding="UTF-8"?>

<!-- generated on 2025-03-21 17:57:41 by Eclipse SUMO sumo Version 1.21.0
<sumoConfiguration xmlns:xsi="http://www.w3.org/2001/XMLSchema-instance" xsi:noNamespaceSchemaLocation="http://sumo.dlr.de/xsd/sumoConfiguration.xsd">

    <input>
        <net-file value="${STATICPATH}/joined_lanes.net.xml"/>
        <route-files value="${SIMULATIONPATH}/generatedRoutes.rou.xml"/>
        <additional-files value="${STATICPATH}/detectors.add.xml,${STATICPATH}/joined_vtypes.add.xml,${STATICPATH}/joined_tls.add.xml"/>
    </input>

    <output>
        <fcd-output value="${SIMULATIONPATH}/fcd.xml"/>
        <queue-output value="${SIMULATIONPATH}/queue.xml"/>
        <summary-output value="${SIMULATIONPATH}/summary.xml"/>
        <tripinfo-output value="${SIMULATIONPATH}/tripinfos.xml"/>
        <vehroute-output value="${SIMULATIONPATH}/vehroute.xml"/>
        <save-state.prefix value="configs\state"/>
    </output>

    <processing>
        <ignore-junction-blocker value="1"/>
        <ignore-route-errors value="true"/>
        <time-to-teleport value="-1"/>
    </processing>

    <report>
        <log value="C:/Users/fabio/Desktop/sumo_log.txt"/>
        <no-step-log value="true"/>
    </report>

    <emissions>
        <phemlight-path value="configs\./PHEMlight/"/>
    </emissions>

    <traci_server>
        <remote-port value="60256"/>
    </traci_server>

</sumoConfiguration>
-->

<fcd-export xmlns:xsi="http://www.w3.org/2001/XMLSchema-instance" xsi:noNamespaceSchemaLocation="http://sumo.dlr.de/xsd/fcd_file.xsd">
    <timestep time="0.00"/>
    <timestep time="1.00"/>
    <timestep time="2.00">
        <vehicle id="0" x="790.00" y="242.30" angle="82.55" type="DEFAULT_VEHTYPE" speed="0.00" pos="5.10" lane="a37_0" slope="0.00"/>
    </timestep>
    <timestep time="3.00">
        <vehicle id="0" x="792.18" y="242.59" angle="82.55" type="DEFAULT_VEHTYPE" speed="2.20" pos="7.30" lane="a37_0" slope="0.00"/>
    </timestep>
    <timestep time="4.00">
        <vehicle id="0" x="796.36" y="243.13" angle="82.55" type="DEFAULT_VEHTYPE" speed="4.22" pos="11.52" lane="a37_0" slope="0.00"/>
    </timestep>
    <timestep time="5.00">
        <vehicle id="0" x="803.11" y="244.02" angle="82.55" type="DEFAULT_VEHTYPE" speed="6.80" pos="18.32" lane="a37_0" slope="0.00"/>
    </timestep>
    <timestep time="6.00">
        <vehicle id="0" x="812.01" y="245.18" angle="82.55" type="DEFAULT_VEHTYPE" speed="8.98" pos="27.30" lane="a37_0" slope="0.00"/>
    </timestep>
    <timestep time="7.00">
        <vehicle id="0" x="822.84" y="246.60" angle="82.55" type="DEFAULT_VEHTYPE" speed="10.92" pos="38.22" lane="a37_0" slope="0.00"/>
    </timestep>
    <timestep time="8.00">
        <vehicle id="0" x="835.95" y="248.31" angle="82.55" type="DEFAULT_VEHTYPE" speed="13.22" pos="51.44" lane="a37_0" slope="0.00"/>
    </timestep>
    <timestep time="9.00">
        <vehicle id="0" x="849.48" y="250.08" angle="82.55" type="DEFAULT_VEHTYPE" speed="13.65" pos="65.09" lane="a37_0" slope="0.00"/>
    </timestep>
    <timestep time="10.00">
        <vehicle id="0" x="863.25" y="251.88" angle="82.55" type="DEFAULT_VEHTYPE" speed="13.88" pos="78.97" lane="a37_0" slope="0.00"/>
    </timestep>
    <timestep time="11.00">
        <vehicle id="0" x="877.34" y="253.72" angle="82.55" type="DEFAULT_VEHTYPE" speed="14.21" pos="93.18" lane="a37_0" slope="0.00"/>
    </timestep>
    <timestep time="12.00">
        <vehicle id="0" x="891.93" y="255.63" angle="82.55" type="DEFAULT_VEHTYPE" speed="14.71" pos="107.90" lane="a37_0" slope="0.00"/>
    </timestep>
    <timestep time="13.00">
        <vehicle id="0" x="902.06" y="256.95" angle="82.55" type="DEFAULT_VEHTYPE" speed="10.21" pos="118.11" lane="a37_0" slope="0.00"/>
    </timestep>
    <timestep time="14.00">
        <vehicle id="0" x="908.39" y="257.78" angle="82.55" type="DEFAULT_VEHTYPE" speed="6.39" pos="124.50" lane="a37_0" slope="0.00"/>
    </timestep>
    <timestep time="15.00">
        <vehicle id="0" x="916.31" y="258.43" angle="86.93" type="DEFAULT_VEHTYPE" speed="7.96" pos="4.19" lane=":a30_3_0" slope="0.00"/>
    </timestep>
    <timestep time="16.00">
        <vehicle id="0" x="926.26" y="257.98" angle="90.74" type="DEFAULT_VEHTYPE" speed="9.98" pos="3.12" lane="a36_0" slope="0.00"/>
    </timestep>
    <timestep time="17.00">
        <vehicle id="0" x="938.20" y="258.00" angle="90.11" type="DEFAULT_VEHTYPE" speed="11.94" pos="15.06" lane="a36_0" slope="0.00"/>
    </timestep>
    <timestep time="18.00">
        <vehicle id="0" x="952.61" y="257.48" angle="92.07" type="DEFAULT_VEHTYPE" speed="14.42" pos="29.48" lane="a36_0" slope="0.00"/>
    </timestep>
    <timestep time="19.00">
        <vehicle id="0" x="966.11" y="257.00" angle="92.07" type="DEFAULT_VEHTYPE" speed="13.51" pos="42.98" lane="a36_0" slope="0.00"/>
    </timestep>
    <timestep time="20.00">
        <vehicle id="0" x="980.58" y="256.06" angle="96.86" type="DEFAULT_VEHTYPE" speed="14.51" pos="57.49" lane="a36_0" slope="0.00"/>
    </timestep>
    <timestep time="21.00">
        <vehicle id="0" x="993.92" y="253.88" angle="103.24" type="DEFAULT_VEHTYPE" speed="13.56" pos="71.06" lane="a36_0" slope="0.00"/>
    </timestep>
    <timestep time="22.00">
        <vehicle id="0" x="1006.77" y="249.64" angle="108.28" type="DEFAULT_VEHTYPE" speed="13.53" pos="84.59" lane="a36_0" slope="0.00"/>
    </timestep>
    <timestep time="23.00">
        <vehicle id="0" x="1020.25" y="245.18" angle="108.28" type="DEFAULT_VEHTYPE" speed="14.19" pos="98.78" lane="a36_0" slope="0.00"/>
    </timestep>
    <timestep time="24.00">
        <vehicle id="0" x="1033.24" y="240.92" angle="107.91" type="DEFAULT_VEHTYPE" speed="13.67" pos="112.45" lane="a36_0" slope="0.00"/>
    </timestep>
    <timestep time="25.00">
        <vehicle id="0" x="1047.33" y="236.66" angle="107.33" type="DEFAULT_VEHTYPE" speed="14.72" pos="8.85" lane=":a28_3_0" slope="0.00"/>
    </timestep>
    <timestep time="26.00">
        <vehicle id="0" x="1060.96" y="232.11" angle="108.70" type="DEFAULT_VEHTYPE" speed="14.37" pos="12.11" lane="a40_0" slope="0.00"/>
    </timestep>
    <timestep time="27.00">
        <vehicle id="0" x="1073.85" y="227.75" angle="108.70" type="DEFAULT_VEHTYPE" speed="13.62" pos="25.72" lane="a40_0" slope="0.00"/>
    </timestep>
    <timestep time="28.00">
        <vehicle id="0" x="1083.44" y="224.50" angle="108.70" type="DEFAULT_VEHTYPE" speed="10.13" pos="35.85" lane="a40_0" slope="0.00"/>
    </timestep>
    <timestep time="29.00">
        <vehicle id="0" x="1089.13" y="222.85" angle="105.74" type="DEFAULT_VEHTYPE" speed="5.96" pos="0.84" lane=":a31_4_0" slope="0.00"/>
    </timestep>
    <timestep time="30.00">
        <vehicle id="0" x="1095.31" y="227.53" angle="38.90" type="DEFAULT_VEHTYPE" speed="8.37" pos="6.77" lane=":a31_5_0" slope="0.00"/>
    </timestep>
    <timestep time="31.00">
        <vehicle id="0" x="1098.37" y="235.66" angle="18.97" type="DEFAULT_VEHTYPE" speed="8.71" pos="2.26" lane="a153_0" slope="0.00"/>
    </timestep>
    <timestep time="32.00">
        <vehicle id="0" x="1101.46" y="245.79" angle="16.97" type="DEFAULT_VEHTYPE" speed="10.59" pos="12.85" lane="a153_0" slope="0.00"/>
    </timestep>
    <timestep time="33.00">
        <vehicle id="0" x="1105.12" y="257.78" angle="16.97" type="DEFAULT_VEHTYPE" speed="12.53" pos="25.38" lane="a153_0" slope="0.00"/>
    </timestep>
    <timestep time="34.00">
        <vehicle id="0" x="1109.36" y="271.69" angle="16.97" type="DEFAULT_VEHTYPE" speed="14.55" pos="39.93" lane="a153_0" slope="0.00"/>
    </timestep>
    <timestep time="35.00">
        <vehicle id="0" x="1113.42" y="285.00" angle="16.97" type="DEFAULT_VEHTYPE" speed="13.91" pos="53.84" lane="a153_0" slope="0.00"/>
    </timestep>
    <timestep time="36.00">
        <vehicle id="0" x="1117.49" y="298.33" angle="16.97" type="DEFAULT_VEHTYPE" speed="13.94" pos="67.78" lane="a153_0" slope="0.00"/>
    </timestep>
    <timestep time="37.00">
        <vehicle id="0" x="1121.58" y="311.74" angle="16.97" type="DEFAULT_VEHTYPE" speed="14.02" pos="81.80" lane="a153_0" slope="0.00"/>
    </timestep>
    <timestep time="38.00">
        <vehicle id="0" x="1125.85" y="325.72" angle="16.97" type="DEFAULT_VEHTYPE" speed="14.62" pos="96.42" lane="a153_0" slope="0.00"/>
    </timestep>
    <timestep time="39.00">
        <vehicle id="0" x="1129.77" y="338.58" angle="16.97" type="DEFAULT_VEHTYPE" speed="13.44" pos="109.86" lane="a153_0" slope="0.00"/>
    </timestep>
    <timestep time="40.00">
        <vehicle id="0" x="1133.92" y="352.20" angle="16.97" type="DEFAULT_VEHTYPE" speed="14.25" pos="124.11" lane="a153_0" slope="0.00"/>
    </timestep>
    <timestep time="41.00">
        <vehicle id="0" x="1137.99" y="365.52" angle="16.97" type="DEFAULT_VEHTYPE" speed="13.92" pos="138.03" lane="a153_0" slope="0.00"/>
    </timestep>
    <timestep time="42.00">
        <vehicle id="0" x="1142.17" y="379.23" angle="16.97" type="DEFAULT_VEHTYPE" speed="14.33" pos="152.36" lane="a153_0" slope="0.00"/>
    </timestep>
    <timestep time="43.00">
        <vehicle id="0" x="1146.34" y="392.90" angle="16.97" type="DEFAULT_VEHTYPE" speed="14.29" pos="166.65" lane="a153_0" slope="0.00"/>
    </timestep>
    <timestep time="44.00">
        <vehicle id="0" x="1150.47" y="406.43" angle="16.97" type="DEFAULT_VEHTYPE" speed="14.15" pos="180.80" lane="a153_0" slope="0.00"/>
    </timestep>
    <timestep time="45.00">
        <vehicle id="0" x="1154.73" y="420.41" angle="16.97" type="DEFAULT_VEHTYPE" speed="14.62" pos="195.42" lane="a153_0" slope="0.00"/>
    </timestep>
    <timestep time="46.00">
        <vehicle id="0" x="1158.99" y="433.50" angle="18.20" type="DEFAULT_VEHTYPE" speed="13.76" pos="209.18" lane="a153_0" slope="0.00"/>
    </timestep>
    <timestep time="47.00">
        <vehicle id="0" x="1163.43" y="446.99" angle="18.20" type="DEFAULT_VEHTYPE" speed="14.20" pos="223.38" lane="a153_0" slope="0.00"/>
    </timestep>
    <timestep time="48.00">
        <vehicle id="0" x="1167.63" y="459.76" angle="18.20" type="DEFAULT_VEHTYPE" speed="13.44" pos="236.82" lane="a153_0" slope="0.00"/>
    </timestep>
    <timestep time="49.00">
        <vehicle id="0" x="1172.17" y="473.56" angle="18.20" type="DEFAULT_VEHTYPE" speed="14.53" pos="251.35" lane="a153_0" slope="0.00"/>
    </timestep>
    <timestep time="50.00">
        <vehicle id="0" x="1176.38" y="486.36" angle="18.20" type="DEFAULT_VEHTYPE" speed="13.48" pos="264.83" lane="a153_0" slope="0.00"/>
    </timestep>
    <timestep time="51.00">
        <vehicle id="0" x="1180.60" y="499.20" angle="18.20" type="DEFAULT_VEHTYPE" speed="13.51" pos="278.34" lane="a153_0" slope="0.00"/>
    </timestep>
    <timestep time="52.00">
        <vehicle id="0" x="1185.14" y="513.01" angle="18.20" type="DEFAULT_VEHTYPE" speed="14.54" pos="292.88" lane="a153_0" slope="0.00"/>
    </timestep>
    <timestep time="53.00">
        <vehicle id="0" x="1189.63" y="526.65" angle="18.20" type="DEFAULT_VEHTYPE" speed="14.36" pos="307.24" lane="a153_0" slope="0.00"/>
    </timestep>
    <timestep time="54.00">
        <vehicle id="0" x="1194.15" y="540.39" angle="18.20" type="DEFAULT_VEHTYPE" speed="14.46" pos="321.71" lane="a153_0" slope="0.00"/>
    </timestep>
    <timestep time="55.00">
        <vehicle id="0" x="1198.65" y="554.08" angle="18.20" type="DEFAULT_VEHTYPE" speed="14.41" pos="336.12" lane="a153_0" slope="0.00"/>
    </timestep>
    <timestep time="56.00">
        <vehicle id="0" x="1203.22" y="567.99" angle="18.20" type="DEFAULT_VEHTYPE" speed="14.64" pos="350.76" lane="a153_0" slope="0.00"/>
    </timestep>
    <timestep time="57.00">
        <vehicle id="0" x="1207.52" y="581.05" angle="18.20" type="DEFAULT_VEHTYPE" speed="13.75" pos="364.51" lane="a153_0" slope="0.00"/>
    </timestep>
    <timestep time="58.00">
        <vehicle id="0" x="1211.99" y="594.65" angle="18.20" type="DEFAULT_VEHTYPE" speed="14.31" pos="378.83" lane="a153_0" slope="0.00"/>
    </timestep>
    <timestep time="59.00">
        <vehicle id="0" x="1215.06" y="604.00" angle="18.20" type="DEFAULT_VEHTYPE" speed="9.84" pos="388.67" lane="a153_0" slope="0.00"/>
    </timestep>
    <timestep time="60.00">
        <vehicle id="0" x="1216.73" y="609.07" angle="18.20" type="DEFAULT_VEHTYPE" speed="5.34" pos="394.01" lane="a153_0" slope="0.00"/>
    </timestep>
    <timestep time="61.00">
        <vehicle id="0" x="1217.03" y="609.97" angle="18.20" type="DEFAULT_VEHTYPE" speed="0.95" pos="394.95" lane="a153_0" slope="0.00"/>
    </timestep>
    <timestep time="62.00">
        <vehicle id="0" x="1217.08" y="610.12" angle="18.20" type="DEFAULT_VEHTYPE" speed="0.15" pos="395.11" lane="a153_0" slope="0.00"/>
    </timestep>
    <timestep time="63.00">
        <vehicle id="0" x="1217.08" y="610.12" angle="18.20" type="DEFAULT_VEHTYPE" speed="0.00" pos="395.11" lane="a153_0" slope="0.00"/>
    </timestep>
    <timestep time="64.00">
        <vehicle id="0" x="1217.08" y="610.12" angle="18.20" type="DEFAULT_VEHTYPE" speed="0.00" pos="395.11" lane="a153_0" slope="0.00"/>
        <vehicle id="1" x="1835.87" y="811.87" angle="166.18" type="DEFAULT_VEHTYPE" speed="0.00" pos="5.10" lane="a202_0" slope="0.00"/>
    </timestep>
    <timestep time="65.00">
        <vehicle id="0" x="1217.08" y="610.12" angle="18.20" type="DEFAULT_VEHTYPE" speed="0.00" pos="395.11" lane="a153_0" slope="0.00"/>
        <vehicle id="1" x="1836.24" y="810.46" angle="165.56" type="DEFAULT_VEHTYPE" speed="1.46" pos="6.56" lane="a202_0" slope="0.00"/>
    </timestep>
    <timestep time="66.00">
        <vehicle id="0" x="1217.08" y="610.12" angle="18.20" type="DEFAULT_VEHTYPE" speed="0.00" pos="395.11" lane="a153_0" slope="0.00"/>
        <vehicle id="1" x="1837.24" y="806.70" angle="165.12" type="DEFAULT_VEHTYPE" speed="3.89" pos="10.44" lane="a202_0" slope="0.00"/>
    </timestep>
    <timestep time="67.00">
        <vehicle id="0" x="1217.08" y="610.12" angle="18.20" type="DEFAULT_VEHTYPE" speed="0.00" pos="395.11" lane="a153_0" slope="0.00"/>
        <vehicle id="1" x="1841.90" y="801.61" angle="165.13" type="DEFAULT_VEHTYPE" speed="6.01" pos="16.45" lane="a202_1" slope="0.00"/>
    </timestep>
    <timestep time="68.00">
        <vehicle id="0" x="1217.08" y="610.12" angle="18.20" type="DEFAULT_VEHTYPE" speed="0.00" pos="395.11" lane="a153_0" slope="0.00"/>
        <vehicle id="1" x="1843.86" y="794.23" angle="165.13" type="DEFAULT_VEHTYPE" speed="7.64" pos="24.09" lane="a202_1" slope="0.00"/>
    </timestep>
    <timestep time="69.00">
        <vehicle id="0" x="1217.08" y="610.12" angle="18.20" type="DEFAULT_VEHTYPE" speed="0.00" pos="395.11" lane="a153_0" slope="0.00"/>
        <vehicle id="1" x="1849.27" y="786.05" angle="165.84" type="DEFAULT_VEHTYPE" speed="9.19" pos="33.28" lane="a202_2" slope="0.00"/>
    </timestep>
    <timestep time="70.00">
        <vehicle id="0" x="1217.73" y="612.00" angle="18.55" type="DEFAULT_VEHTYPE" speed="1.99" pos="0.99" lane=":a63_1_0" slope="0.00"/>
        <vehicle id="1" x="1852.06" y="775.00" angle="165.84" type="DEFAULT_VEHTYPE" speed="11.41" pos="44.69" lane="a202_2" slope="0.00"/>
    </timestep>
    <timestep time="71.00">
        <vehicle id="0" x="1218.96" y="615.40" angle="19.82" type="DEFAULT_VEHTYPE" speed="3.62" pos="4.61" lane=":a63_1_0" slope="0.00"/>
        <vehicle id="1" x="1855.23" y="762.45" angle="165.84" type="DEFAULT_VEHTYPE" speed="12.95" pos="57.64" lane="a202_2" slope="0.00"/>
    </timestep>
    <timestep time="72.00">
        <vehicle id="0" x="1221.08" y="620.21" angle="23.96" type="DEFAULT_VEHTYPE" speed="5.26" pos="9.87" lane=":a63_1_0" slope="0.00"/>
        <vehicle id="1" x="1858.35" y="750.07" angle="165.84" type="DEFAULT_VEHTYPE" speed="12.77" pos="70.41" lane="a202_2" slope="0.00"/>
    </timestep>
    <timestep time="73.00">
        <vehicle id="0" x="1225.97" y="624.74" angle="53.71" type="DEFAULT_VEHTYPE" speed="6.99" pos="1.00" lane="a87[0]_0" slope="0.00"/>
        <vehicle id="1" x="1861.45" y="737.73" angle="165.93" type="DEFAULT_VEHTYPE" speed="12.72" pos="83.13" lane="a202_2" slope="0.00"/>
    </timestep>
    <timestep time="74.00">
        <vehicle id="0" x="1234.16" y="626.14" angle="80.28" type="DEFAULT_VEHTYPE" speed="8.57" pos="5.27" lane=":a59_0_1" slope="0.00"/>
        <vehicle id="1" x="1864.51" y="725.34" angle="166.15" type="DEFAULT_VEHTYPE" speed="12.76" pos="95.89" lane="a202_2" slope="0.00"/>
    </timestep>
    <timestep time="75.00">
        <vehicle id="0" x="1244.45" y="627.92" angle="80.14" type="DEFAULT_VEHTYPE" speed="10.59" pos="7.46" lane="a20001+87[1][0]_1" slope="0.00"/>
        <vehicle id="1" x="1867.44" y="713.46" angle="166.15" type="DEFAULT_VEHTYPE" speed="12.25" pos="108.14" lane="a202_2" slope="0.00"/>
    </timestep>
    <timestep time="76.00">
        <vehicle id="0" x="1256.57" y="630.02" angle="80.14" type="DEFAULT_VEHTYPE" speed="12.30" pos="19.76" lane="a20001+87[1][0]_1" slope="0.00"/>
        <vehicle id="1" x="1870.26" y="702.01" angle="166.15" type="DEFAULT_VEHTYPE" speed="11.79" pos="119.93" lane="a202_2" slope="0.00"/>
    </timestep>
    <timestep time="77.00">
        <vehicle id="0" x="1270.68" y="632.49" angle="79.93" type="DEFAULT_VEHTYPE" speed="14.32" pos="4.64" lane=":a60_0_0" slope="0.00"/>
        <vehicle id="1" x="1873.17" y="690.19" angle="166.15" type="DEFAULT_VEHTYPE" speed="12.18" pos="132.11" lane="a202_2" slope="0.00"/>
    </timestep>
    <timestep time="78.00">
        <vehicle id="0" x="1283.91" y="634.98" angle="79.12" type="DEFAULT_VEHTYPE" speed="13.46" pos="8.99" lane=":a61_4_0" slope="0.00"/>
        <vehicle id="1" x="1876.00" y="678.73" angle="166.15" type="DEFAULT_VEHTYPE" speed="11.81" pos="143.92" lane="a202_2" slope="0.00"/>
    </timestep>
    <timestep time="79.00">
        <vehicle id="0" x="1295.61" y="637.41" angle="78.00" type="DEFAULT_VEHTYPE" speed="11.96" pos="9.29" lane="am90_0" slope="0.00"/>
        <vehicle id="1" x="1879.01" y="666.53" angle="166.15" type="DEFAULT_VEHTYPE" speed="12.57" pos="156.48" lane="a202_2" slope="0.00"/>
    </timestep>
    <timestep time="80.00">
        <vehicle id="0" x="1304.29" y="639.25" angle="78.00" type="DEFAULT_VEHTYPE" speed="8.87" pos="18.15" lane="am90_0" slope="0.00"/>
        <vehicle id="1" x="1882.05" y="654.24" angle="166.04" type="DEFAULT_VEHTYPE" speed="12.68" pos="2.34" lane=":a29_0_2" slope="0.00"/>
    </timestep>
    <timestep time="81.00">
        <vehicle id="0" x="1308.56" y="640.16" angle="78.00" type="DEFAULT_VEHTYPE" speed="4.37" pos="22.52" lane="am90_0" slope="0.00"/>
        <vehicle id="1" x="1885.05" y="642.46" angle="165.50" type="DEFAULT_VEHTYPE" speed="12.18" pos="6.23" lane="a34_2" slope="0.00"/>
    </timestep>
    <timestep time="82.00">
        <vehicle id="0" x="1310.58" y="641.83" angle="63.02" type="DEFAULT_VEHTYPE" speed="2.80" pos="0.45" lane=":a62_8_0" slope="0.00"/>
        <vehicle id="1" x="1888.02" y="630.95" angle="165.50" type="DEFAULT_VEHTYPE" speed="11.88" pos="18.12" lane="a34_2" slope="0.00"/>
    </timestep>
    <timestep time="83.00">
        <vehicle id="0" x="1308.32" y="643.38" angle="336.97" type="DEFAULT_VEHTYPE" speed="3.26" pos="0.48" lane="am91_0" slope="0.00"/>
        <vehicle id="1" x="1890.99" y="619.49" angle="165.50" type="DEFAULT_VEHTYPE" speed="11.85" pos="29.97" lane="a34_2" slope="0.00"/>
    </timestep>
    <timestep time="84.00">
        <vehicle id="0" x="1302.82" y="642.21" angle="258.00" type="DEFAULT_VEHTYPE" speed="5.62" pos="6.11" lane="am91_0" slope="0.00"/>
        <vehicle id="1" x="1894.24" y="606.90" angle="165.50" type="DEFAULT_VEHTYPE" speed="13.00" pos="42.97" lane="a34_2" slope="0.00"/>
    </timestep>
    <timestep time="85.00">
        <vehicle id="0" x="1295.98" y="640.76" angle="258.00" type="DEFAULT_VEHTYPE" speed="6.99" pos="13.09" lane="am91_0" slope="0.00"/>
        <vehicle id="1" x="1896.53" y="598.06" angle="165.50" type="DEFAULT_VEHTYPE" speed="9.13" pos="52.11" lane="a34_2" slope="0.00"/>
    </timestep>
    <timestep time="86.00">
        <vehicle id="0" x="1287.56" y="638.97" angle="258.00" type="DEFAULT_VEHTYPE" speed="8.61" pos="21.70" lane="am91_0" slope="0.00"/>
        <vehicle id="1" x="1897.69" y="593.58" angle="165.50" type="DEFAULT_VEHTYPE" speed="4.63" pos="56.74" lane="a34_2" slope="0.00"/>
    </timestep>
    <timestep time="87.00">
        <vehicle id="0" x="1277.41" y="637.02" angle="259.37" type="DEFAULT_VEHTYPE" speed="10.33" pos="8.60" lane=":a61_0_0" slope="0.00"/>
        <vehicle id="1" x="1897.75" y="593.36" angle="165.50" type="DEFAULT_VEHTYPE" speed="0.23" pos="56.97" lane="a34_2" slope="0.00"/>
    </timestep>
    <timestep time="88.00">
        <vehicle id="0" x="1265.51" y="634.91" angle="260.10" type="DEFAULT_VEHTYPE" speed="12.08" pos="9.14" lane="a88_0" slope="0.00"/>
        <vehicle id="1" x="1897.77" y="593.25" angle="165.50" type="DEFAULT_VEHTYPE" speed="0.11" pos="57.08" lane="a34_2" slope="0.00"/>
    </timestep>
    <timestep time="89.00">
        <vehicle id="0" x="1251.93" y="632.54" angle="260.10" type="DEFAULT_VEHTYPE" speed="13.79" pos="22.93" lane="a88_0" slope="0.00"/>
        <vehicle id="1" x="1898.27" y="591.76" angle="164.23" type="DEFAULT_VEHTYPE" speed="1.58" pos="0.55" lane=":a27_13_0" slope="0.00"/>
    </timestep>
    <timestep time="90.00">
        <vehicle id="0" x="1238.80" y="630.25" angle="260.10" type="DEFAULT_VEHTYPE" speed="13.32" pos="36.26" lane="a88_0" slope="0.00"/>
        <vehicle id="1" x="1899.83" y="588.57" angle="155.99" type="DEFAULT_VEHTYPE" speed="3.55" pos="4.11" lane=":a27_13_0" slope="0.00"/>
    </timestep>
    <timestep time="91.00">
        <vehicle id="0" x="1230.11" y="628.73" angle="260.10" type="DEFAULT_VEHTYPE" speed="8.82" pos="45.08" lane="a88_0" slope="0.00"/>
        <vehicle id="1" x="1902.92" y="584.44" angle="142.71" type="DEFAULT_VEHTYPE" speed="5.24" pos="9.35" lane=":a27_13_0" slope="0.00"/>
    </timestep>
    <timestep time="92.00">
        <vehicle id="0" x="1225.85" y="627.99" angle="260.10" type="DEFAULT_VEHTYPE" speed="4.32" pos="49.41" lane="a88_0" slope="0.00"/>
        <vehicle id="1" x="1908.05" y="580.42" angle="126.75" type="DEFAULT_VEHTYPE" speed="6.57" pos="15.92" lane=":a27_13_0" slope="0.00"/>
    </timestep>
    <timestep time="93.00">
        <vehicle id="0" x="1225.47" y="627.92" angle="260.10" type="DEFAULT_VEHTYPE" speed="0.39" pos="49.79" lane="a88_0" slope="0.00"/>
        <vehicle id="1" x="1916.32" y="576.74" angle="112.08" type="DEFAULT_VEHTYPE" speed="9.08" pos="25.00" lane=":a27_13_0" slope="0.00"/>
    </timestep>
    <timestep time="94.00">
        <vehicle id="0" x="1225.43" y="627.91" angle="260.10" type="DEFAULT_VEHTYPE" speed="0.04" pos="49.84" lane="a88_0" slope="0.00"/>
        <vehicle id="1" x="1927.10" y="573.92" angle="103.64" type="DEFAULT_VEHTYPE" speed="11.15" pos="2.23" lane="a134_0" slope="0.00"/>
    </timestep>
    <timestep time="95.00">
        <vehicle id="0" x="1225.43" y="627.91" angle="260.10" type="DEFAULT_VEHTYPE" speed="0.00" pos="49.84" lane="a88_0" slope="0.00"/>
        <vehicle id="1" x="1938.82" y="571.49" angle="102.14" type="DEFAULT_VEHTYPE" speed="11.98" pos="2.89" lane=":a26_3_0" slope="0.00"/>
    </timestep>
    <timestep time="96.00">
        <vehicle id="0" x="1225.43" y="627.91" angle="260.10" type="DEFAULT_VEHTYPE" speed="0.00" pos="49.84" lane="a88_0" slope="0.00"/>
        <vehicle id="1" x="1950.88" y="568.78" angle="102.70" type="DEFAULT_VEHTYPE" speed="12.35" pos="15.25" lane=":a26_3_0" slope="0.00"/>
    </timestep>
    <timestep time="97.00">
        <vehicle id="0" x="1225.43" y="627.91" angle="260.10" type="DEFAULT_VEHTYPE" speed="0.00" pos="49.84" lane="a88_0" slope="0.00"/>
        <vehicle id="1" x="1962.67" y="565.82" angle="104.51" type="DEFAULT_VEHTYPE" speed="12.16" pos="9.25" lane="a134b_0" slope="0.00"/>
    </timestep>
    <timestep time="98.00">
        <vehicle id="0" x="1225.43" y="627.91" angle="260.10" type="DEFAULT_VEHTYPE" speed="0.00" pos="49.84" lane="a88_0" slope="0.00"/>
        <vehicle id="1" x="1974.94" y="562.65" angle="104.51" type="DEFAULT_VEHTYPE" speed="12.68" pos="21.93" lane="a134b_0" slope="0.00"/>
    </timestep>
    <timestep time="99.00">
        <vehicle id="0" x="1225.43" y="627.91" angle="260.10" type="DEFAULT_VEHTYPE" speed="0.00" pos="49.84" lane="a88_0" slope="0.00"/>
        <vehicle id="1" x="1986.85" y="559.57" angle="104.51" type="DEFAULT_VEHTYPE" speed="12.30" pos="34.23" lane="a134b_0" slope="0.00"/>
    </timestep>
    <timestep time="100.00">
        <vehicle id="0" x="1225.43" y="627.91" angle="260.10" type="DEFAULT_VEHTYPE" speed="0.00" pos="49.84" lane="a88_0" slope="0.00"/>
        <vehicle id="1" x="1998.84" y="556.46" angle="104.51" type="DEFAULT_VEHTYPE" speed="12.38" pos="46.61" lane="a134b_0" slope="0.00"/>
    </timestep>
    <timestep time="101.00">
        <vehicle id="0" x="1225.43" y="627.91" angle="260.10" type="DEFAULT_VEHTYPE" speed="0.00" pos="49.84" lane="a88_0" slope="0.00"/>
        <vehicle id="1" x="2011.44" y="553.20" angle="104.51" type="DEFAULT_VEHTYPE" speed="13.02" pos="59.63" lane="a134b_0" slope="0.00"/>
    </timestep>
    <timestep time="102.00">
        <vehicle id="0" x="1223.58" y="627.61" angle="260.37" type="DEFAULT_VEHTYPE" speed="1.87" pos="0.86" lane=":a63_0_0" slope="0.00"/>
        <vehicle id="1" x="2023.04" y="550.20" angle="104.51" type="DEFAULT_VEHTYPE" speed="11.98" pos="71.62" lane="a134b_0" slope="0.00"/>
    </timestep>
    <timestep time="103.00">
        <vehicle id="0" x="1220.45" y="627.15" angle="261.34" type="DEFAULT_VEHTYPE" speed="3.17" pos="4.04" lane=":a63_0_0" slope="0.00"/>
        <vehicle id="1" x="2034.50" y="547.24" angle="104.51" type="DEFAULT_VEHTYPE" speed="11.83" pos="83.45" lane="a134b_0" slope="0.00"/>
    </timestep>
    <timestep time="104.00">
        <vehicle id="0" x="1215.67" y="626.47" angle="261.80" type="DEFAULT_VEHTYPE" speed="4.83" pos="0.67" lane="a187_0" slope="0.00"/>
        <vehicle id="1" x="2045.96" y="544.27" angle="104.51" type="DEFAULT_VEHTYPE" speed="11.84" pos="95.28" lane="a134b_0" slope="0.00"/>
    </timestep>
    <timestep time="105.00">
        <vehicle id="0" x="1208.69" y="625.59" angle="262.84" type="DEFAULT_VEHTYPE" speed="7.03" pos="7.71" lane="a187_0" slope="0.00"/>
        <vehicle id="1" x="2058.11" y="541.13" angle="104.51" type="DEFAULT_VEHTYPE" speed="12.56" pos="107.84" lane="a134b_0" slope="0.00"/>
    </timestep>
    <timestep time="106.00">
        <vehicle id="0" x="1199.43" y="624.43" angle="262.84" type="DEFAULT_VEHTYPE" speed="9.34" pos="17.04" lane="a187_0" slope="0.00"/>
        <vehicle id="1" x="2070.30" y="537.97" angle="104.51" type="DEFAULT_VEHTYPE" speed="12.59" pos="120.43" lane="a134b_0" slope="0.00"/>
    </timestep>
    <timestep time="107.00">
        <vehicle id="0" x="1187.79" y="622.96" angle="262.84" type="DEFAULT_VEHTYPE" speed="11.73" pos="28.78" lane="a187_0" slope="0.00"/>
        <vehicle id="1" x="2081.98" y="534.95" angle="104.51" type="DEFAULT_VEHTYPE" speed="12.07" pos="132.50" lane="a134b_0" slope="0.00"/>
    </timestep>
    <timestep time="108.00">
        <vehicle id="0" x="1174.47" y="621.29" angle="262.84" type="DEFAULT_VEHTYPE" speed="13.42" pos="42.19" lane="a187_0" slope="0.00"/>
        <vehicle id="1" x="2093.06" y="532.09" angle="104.51" type="DEFAULT_VEHTYPE" speed="11.44" pos="143.93" lane="a134b_0" slope="0.00"/>
    </timestep>
    <timestep time="109.00">
        <vehicle id="0" x="1160.74" y="619.56" angle="262.84" type="DEFAULT_VEHTYPE" speed="13.84" pos="56.03" lane="a187_0" slope="0.00"/>
        <vehicle id="1" x="2101.42" y="529.92" angle="104.51" type="DEFAULT_VEHTYPE" speed="8.64" pos="152.57" lane="a134b_0" slope="0.00"/>
    </timestep>
    <timestep time="110.00">
        <vehicle id="0" x="1146.98" y="617.84" angle="262.84" type="DEFAULT_VEHTYPE" speed="13.86" pos="69.90" lane="a187_0" slope="0.00"/>
        <vehicle id="1" x="2105.43" y="528.88" angle="104.51" type="DEFAULT_VEHTYPE" speed="4.14" pos="156.71" lane="a134b_0" slope="0.00"/>
    </timestep>
    <timestep time="111.00">
        <vehicle id="0" x="1136.76" y="616.55" angle="262.84" type="DEFAULT_VEHTYPE" speed="10.30" pos="80.19" lane="a187_0" slope="0.00"/>
        <vehicle id="1" x="2107.73" y="530.31" angle="76.41" type="DEFAULT_VEHTYPE" speed="3.20" pos="2.74" lane=":a133-begin_0_0" slope="0.00"/>
    </timestep>
    <timestep time="112.00">
        <vehicle id="0" x="1131.00" y="616.07" angle="265.54" type="DEFAULT_VEHTYPE" speed="5.80" pos="1.68" lane=":a82_0_0" slope="0.00"/>
        <vehicle id="1" x="2106.03" y="532.04" angle="357.29" type="DEFAULT_VEHTYPE" speed="2.59" pos="0.66" lane="a133_0" slope="0.00"/>
    </timestep>
    <timestep time="113.00">
        <vehicle id="0" x="1127.45" y="619.70" angle="322.71" type="DEFAULT_VEHTYPE" speed="5.79" pos="7.47" lane=":a82_0_0" slope="0.00"/>
        <vehicle id="1" x="2101.41" y="533.23" angle="284.50" type="DEFAULT_VEHTYPE" speed="4.77" pos="5.43" lane="a133_0" slope="0.00"/>
    </timestep>
    <timestep time="114.00">
        <vehicle id="0" x="1127.88" y="624.97" angle="4.97" type="DEFAULT_VEHTYPE" speed="5.30" pos="3.70" lane="a191_0" slope="0.00"/>
        <vehicle id="1" x="2094.43" y="535.04" angle="284.50" type="DEFAULT_VEHTYPE" speed="7.21" pos="12.64" lane="a133_0" slope="0.00"/>
    </timestep>
    <timestep time="115.00">
        <vehicle id="0" x="1128.86" y="632.80" angle="7.12" type="DEFAULT_VEHTYPE" speed="7.89" pos="11.59" lane="a191_0" slope="0.00"/>
        <vehicle id="1" x="2085.35" y="537.39" angle="284.50" type="DEFAULT_VEHTYPE" speed="9.38" pos="22.02" lane="a133_0" slope="0.00"/>
    </timestep>
    <timestep time="116.00">
        <vehicle id="0" x="1130.11" y="642.81" angle="7.12" type="DEFAULT_VEHTYPE" speed="10.09" pos="21.68" lane="a191_0" slope="0.00"/>