<?xml version="1.0" encoding="UTF-8"?>

<!-- generated on 2025-03-21 17:57:41 by Eclipse SUMO sumo Version 1.21.0
<sumoConfiguration xmlns:xsi="http://www.w3.org/2001/XMLSchema-instance" xsi:noNamespaceSchemaLocation="http://sumo.dlr.de/xsd/sumoConfiguration.xsd">

    <input>
        <net-file value="${STATICPATH}/joined_lanes.net.xml"/>
        <route-files value="${SIMULATIONPATH}/generatedRoutes.rou.xml"/>
        <additional-files value="${STATICPATH}/detectors.add.xml,${STATICPATH}/joined_vtypes.add.xml,${STATICPATH}/joined_tls.add.xml"/>
    </input>

    <output>
        <fcd-output value="${SIMULATIONPATH}/fcd.xml"/>
        <queue-output value="${SIMULATIONPATH}/queue.xml"/>
        <summary-output value="${SIMULATIONPATH}/summary.xml"/>
        <tripinfo-output value="${SIMULATIONPATH}/tripinfos.xml"/>
        <vehroute-output value="${SIMULATIONPATH}/vehroute.xml"/>
        <save-state.prefix value="configs\state"/>
    </output>

    <processing>
        <ignore-junction-blocker value="1"/>
        <ignore-route-errors value="true"/>
        <time-to-teleport value="-1"/>
    </processing>

    <report>
        <log value="C:/Users/fabio/Desktop/sumo_log.txt"/>
        <no-step-log value="true"/>
    </report>

    <emissions>
        <phemlight-path value="configs\./PHEMlight/"/>
    </emissions>

    <traci_server>
        <remote-port value="60256"/>
    </traci_server>

</sumoConfiguration>
-->

<tripinfos xmlns:xsi="http://www.w3.org/2001/XMLSchema-instance" xsi:noNamespaceSchemaLocation="http://sumo.dlr.de/xsd/tripinfo_file.xsd">
    <tripinfo id="0" depart="2.00" departLane="a37_0" departPos="5.10" departSpeed="0.00" departDelay="0.80" arrival="212.00" arrivalLane="b37_0" arrivalPos="184.77" arrivalSpeed="13.56" duration="210.00" routeLength="1759.89" waitingTime="41.00" waitingCount="5" stopTime="0.00" timeLoss="86.22" rerouteNo="0" devices="vehroute_0 tripinfo_0 fcd_0" vType="DEFAULT_VEHTYPE" speedFactor="1.06" vaporized=""/>
    <tripinfo id="3" depart="154.00" departLane="a203[0]_0" departPos="5.10" departSpeed="0.00" departDelay="0.52" arrival="363.00" arrivalLane="b2[1][1][1]b_1" arrivalPos="325.74" arrivalSpeed="14.94" duration="209.00" routeLength="2513.32" waitingTime="18.00" waitingCount="1" stopTime="0.00" timeLoss="40.11" rerouteNo="0" devices="vehroute_3 tripinfo_3 fcd_3" vType="DEFAULT_VEHTYPE" speedFactor="1.08" vaporized=""/>
    <tripinfo id="2" depart="137.00" departLane="a203[0]_0" departPos="5.10" departSpeed="0.00" departDelay="0.12" arrival="365.00" arrivalLane="b2[1][1][1]b_0" arrivalPos="325.74" arrivalSpeed="12.89" duration="228.00" routeLength="2513.32" waitingTime="25.00" waitingCount="1" stopTime="0.00" timeLoss="46.58" rerouteNo="0" devices="vehroute_2 tripinfo_2 fcd_2" vType="DEFAULT_VEHTYPE" speedFactor="1.01" vaporized=""/>
    <tripinfo id="1" depart="64.00" departLane="a202_0" departPos="5.10" departSpeed="0.00" departDelay="0.32" arrival="411.00" arrivalLane="b10_0" arrivalPos="224.30" arrivalSpeed="12.90" duration="347.00" routeLength="2971.84" waitingTime="64.00" waitingCount="5" stopTime="0.00" timeLoss="116.86" rerouteNo="0" devices="vehroute_1 tripinfo_1 fcd_1" vType="DEFAULT_VEHTYPE" speedFactor="0.94" vaporized=""/>
    <tripinfo id="5" depart="233.00" departLane="a17_0" departPos="5.10" departSpeed="0.00" departDelay="0.38" arrival="448.00" arrivalLane="b4[1][1][0]_0" arrivalPos="170.25" arrivalSpeed="11.33" duration="215.00" routeLength="1633.84" waitingTime="44.00" waitingCount="3" stopTime="0.00" timeLoss="70.22" rerouteNo="0" devices="vehroute_5 tripinfo_5 fcd_5" vType="DEFAULT_VEHTYPE" speedFactor="0.83" vaporized=""/>
    <tripinfo id="7" depart="276.00" departLane="a78[0]_0" departPos="5.10" departSpeed="0.00" departDelay="0.90" arrival="464.00" arrivalLane="b53a_0" arrivalPos="257.19" arrivalSpeed="11.65" duration="188.00" routeLength="1975.46" waitingTime="2.00" waitingCount="1" stopTime="0.00" timeLoss="24.97" rerouteNo="0" devices="vehroute_7 tripinfo_7 fcd_7" vType="DEFAULT_VEHTYPE" speedFactor="0.89" vaporized=""/>
    <tripinfo id="4" depart="173.00" departLane="a74_0" departPos="5.10" departSpeed="0.00" departDelay="0.81" arrival="486.00" arrivalLane="b2[1][1][1]b_0" arrivalPos="325.74" arrivalSpeed="13.87" duration="313.00" routeLength="3353.45" waitingTime="37.00" waitingCount="3" stopTime="0.00" timeLoss="76.23" rerouteNo="0" devices="vehroute_4 tripinfo_4 fcd_4" vType="DEFAULT_VEHTYPE" speedFactor="1.03" vaporized=""/>
    <tripinfo id="8" depart="288.00" departLane="b39[1][1][1]_0" departPos="5.10" departSpeed="0.00" departDelay="0.12" arrival="529.00" arrivalLane="b10_0" arrivalPos="224.30" arrivalSpeed="12.18" duration="241.00" routeLength="1887.73" waitingTime="67.00" waitingCount="3" stopTime="0.00" timeLoss="93.76" rerouteNo="0" devices="vehroute_8 tripinfo_8 fcd_8" vType="DEFAULT_VEHTYPE" speedFactor="0.94" vaporized=""/>
    <tripinfo id="6" depart="269.00" departLane="a210_0" departPos="5.10" departSpeed="0.00" departDelay="0.33" arrival="530.00" arrivalLane="b10_0" arrivalPos="224.30" arrivalSpeed="13.63" duration="261.00" routeLength="2833.68" waitingTime="32.00" waitingCount="3" stopTime="0.00" timeLoss="65.63" rerouteNo="0" devices="vehroute_6 tripinfo_6 fcd_6" vType="DEFAULT_VEHTYPE" speedFactor="1.05" vaporized=""/>
    <tripinfo id="13" depart="480.00" departLane="a78[0]_0" departPos="5.10" departSpeed="0.00" departDelay="0.68" arrival="655.00" arrivalLane="b53a_0" arrivalPos="257.19" arrivalSpeed="14.81" duration="175.00" routeLength="1975.46" waitingTime="23.00" waitingCount="1" stopTime="0.00" timeLoss="45.53" rerouteNo="0" devices="vehroute_13 tripinfo_13 fcd_13" vType="DEFAULT_VEHTYPE" speedFactor="1.12" vaporized=""/>
    <tripinfo id="11" depart="440.00" departLane="a210_0" departPos="5.10" departSpeed="0.00" departDelay="0.67" arrival="705.00" arrivalLane="b10_0" arrivalPos="224.30" arrivalSpeed="13.31" duration="265.00" routeLength="2833.68" waitingTime="41.00" waitingCount="2" stopTime="0.00" timeLoss="65.69" rerouteNo="0" devices="vehroute_11 tripinfo_11 fcd_11" vType="DEFAULT_VEHTYPE" speedFactor="1.03" vaporized=""/>
    <tripinfo id="10" depart="381.00" departLane="a74_0" departPos="5.10" departSpeed="0.00" departDelay="0.50" arrival="763.00" arrivalLane="b2[1][1][1]b_0" arrivalPos="325.74" arrivalSpeed="14.28" duration="382.00" routeLength="3351.92" waitingTime="117.00" waitingCount="3" stopTime="0.00" timeLoss="158.13" rerouteNo="0" devices="vehroute_10 tripinfo_10 fcd_10" vType="DEFAULT_VEHTYPE" speedFactor="1.09" vaporized=""/>
    <tripinfo id="9" depart="368.00" departLane="a74_0" departPos="5.10" departSpeed="0.00" departDelay="0.26" arrival="770.00" arrivalLane="b2[1][1][1]b_0" arrivalPos="325.74" arrivalSpeed="11.43" duration="402.00" routeLength="3351.92" waitingTime="80.00" waitingCount="3" stopTime="0.00" timeLoss="116.20" rerouteNo="0" devices="vehroute_9 tripinfo_9 fcd_9" vType="DEFAULT_VEHTYPE" speedFactor="0.86" vaporized=""/>
    <tripinfo id="12" depart="458.00" departLane="a202_0" departPos="5.10" departSpeed="0.00" departDelay="0.08" arrival="831.00" arrivalLane="b10_0" arrivalPos="224.30" arrivalSpeed="13.96" duration="373.00" routeLength="2971.84" waitingTime="122.00" waitingCount="5" stopTime="0.00" timeLoss="167.20" rerouteNo="0" devices="vehroute_12 tripinfo_12 fcd_12" vType="DEFAULT_VEHTYPE" speedFactor="1.05" vaporized=""/>
    <tripinfo id="15" depart="538.00" departLane="a202_0" departPos="5.10" departSpeed="0.00" departDelay="0.74" arrival="835.00" arrivalLane="b10_0" arrivalPos="224.30" arrivalSpeed="12.72" duration="297.00" routeLength="2971.84" waitingTime="28.00" waitingCount="3" stopTime="0.00" timeLoss="64.41" rerouteNo="0" devices="vehroute_15 tripinfo_15 fcd_15" vType="DEFAULT_VEHTYPE" speedFactor="0.93" vaporized=""/>
    <tripinfo id="14" depart="482.00" departLane="a74_0" departPos="5.10" departSpeed="0.00" departDelay="0.31" arrival="890.00" arrivalLane="b2[1][1][1]b_0" arrivalPos="325.74" arrivalSpeed="13.62" duration="408.00" routeLength="3353.45" waitingTime="112.00" waitingCount="5" stopTime="0.00" timeLoss="161.46" rerouteNo="0" devices="vehroute_14 tripinfo_14 fcd_14" vType="DEFAULT_VEHTYPE" speedFactor="0.99" vaporized=""/>
    <tripinfo id="21" depart="691.00" departLane="a17_0" departPos="5.10" departSpeed="0.00" departDelay="0.58" arrival="929.00" arrivalLane="b4[1][1][0]_0" arrivalPos="170.25" arrivalSpeed="13.25" duration="238.00" routeLength="1633.84" waitingTime="92.00" waitingCount="3" stopTime="0.00" timeLoss="120.00" rerouteNo="0" devices="vehroute_21 tripinfo_21 fcd_21" vType="DEFAULT_VEHTYPE" speedFactor="1.01" vaporized=""/>
    <tripinfo id="23" depart="763.00" departLane="a78[0]_0" departPos="5.10" departSpeed="0.00" departDelay="0.68" arrival="952.00" arrivalLane="b53a_0" arrivalPos="257.19" arrivalSpeed="11.63" duration="189.00" routeLength="1975.46" waitingTime="5.00" waitingCount="1" stopTime="0.00" timeLoss="26.07" rerouteNo="0" devices="vehroute_23 tripinfo_23 fcd_23" vType="DEFAULT_VEHTYPE" speedFactor="0.89" vaporized=""/>
    <tripinfo id="19" depart="640.00" departLane="a74_0" departPos="5.10" departSpeed="0.00" departDelay="0.04" arrival="971.00" arrivalLane="b2[1][1][1]b_0" arrivalPos="325.74" arrivalSpeed="15.41" duration="331.00" routeLength="3353.45" waitingTime="78.00" waitingCount="4" stopTime="0.00" timeLoss="120.40" rerouteNo="0" devices="vehroute_19 tripinfo_19 fcd_19" vType="DEFAULT_VEHTYPE" speedFactor="1.16" vaporized=""/>
    <tripinfo id="16" depart="615.00" departLane="a202_0" departPos="5.10" departSpeed="0.00" departDelay="0.61" arrival="992.00" arrivalLane="b10_0" arrivalPos="224.30" arrivalSpeed="12.15" duration="377.00" routeLength="2971.84" waitingTime="93.00" waitingCount="3" stopTime="0.00" timeLoss="131.53" rerouteNo="0" devices="vehroute_16 tripinfo_16 fcd_16" vType="DEFAULT_VEHTYPE" speedFactor="0.88" vaporized=""/>
    <tripinfo id="22" depart="716.00" departLane="a153_0" departPos="5.10" departSpeed="0.00" departDelay="0.12" arrival="1009.00" arrivalLane="b15_0" arrivalPos="316.83" arrivalSpeed="12.60" duration="293.00" routeLength="2077.49" waitingTime="102.00" waitingCount="3" stopTime="0.00" timeLoss="134.95" rerouteNo="0" devices="vehroute_22 tripinfo_22 fcd_22" vType="DEFAULT_VEHTYPE" speedFactor="0.97" vaporized=""/>
    <tripinfo id="24" depart="795.00" departLane="a78[0]_0" departPos="5.10" departSpeed="0.00" departDelay="0.11" arrival="1081.00" arrivalLane="b53a_0" arrivalPos="257.19" arrivalSpeed="11.42" duration="286.00" routeLength="1975.46" waitingTime="84.00" waitingCount="2" stopTime="0.00" timeLoss="110.52" rerouteNo="0" devices="vehroute_24 tripinfo_24 fcd_24" vType="DEFAULT_VEHTYPE" speedFactor="0.83" vaporized=""/>
    <tripinfo id="20" depart="683.00" departLane="a74_0" departPos="5.10" departSpeed="0.00" departDelay="0.10" arrival="1102.00" arrivalLane="b2[1][1][1]b_0" arrivalPos="325.74" arrivalSpeed="13.92" duration="419.00" routeLength="3356.41" waitingTime="141.00" waitingCount="3" stopTime="0.00" timeLoss="179.17" rerouteNo="0" devices="vehroute_20 tripinfo_20 fcd_20" vType="DEFAULT_VEHTYPE" speedFactor="1.02" vaporized=""/>
    <tripinfo id="17" depart="626.00" departLane="a74_0" departPos="5.10" departSpeed="0.00" departDelay="0.49" arrival="1108.00" arrivalLane="b2[1][1][1]b_0" arrivalPos="325.74" arrivalSpeed="12.04" duration="482.00" routeLength="3348.96" waitingTime="183.00" waitingCount="4" stopTime="0.00" timeLoss="223.20" rerouteNo="0" devices="vehroute_17 tripinfo_17 fcd_17" vType="DEFAULT_VEHTYPE" speedFactor="0.94" vaporized=""/>
    <tripinfo id="27" depart="838.00" departLane="a203[0]_0" departPos="5.10" departSpeed="0.00" departDelay="0.48" arrival="1109.00" arrivalLane="b2[1][1][1]b_1" arrivalPos="325.74" arrivalSpeed="12.95" duration="271.00" routeLength="2513.32" waitingTime="35.00" waitingCount="4" stopTime="0.00" timeLoss="78.08" rerouteNo="0" devices="vehroute_27 tripinfo_27 fcd_27" vType="DEFAULT_VEHTYPE" speedFactor="0.95" vaporized=""/>
    <tripinfo id="18" depart="637.00" departLane="a74_0" departPos="5.10" departSpeed="0.00" departDelay="0.21" arrival="1110.00" arrivalLane="b2[1][1][1]b_0" arrivalPos="325.74" arrivalSpeed="11.99" duration="473.00" routeLength="3348.96" waitingTime="163.00" waitingCount="4" stopTime="0.00" timeLoss="212.00" rerouteNo="0" devices="vehroute_18 tripinfo_18 fcd_18" vType="DEFAULT_VEHTYPE" speedFactor="0.94" vaporized=""/>
    <tripinfo id="25" depart="818.00" departLane="a203[0]_0" departPos="5.10" departSpeed="0.00" departDelay="0.93" arrival="1117.00" arrivalLane="b2[1][1][1]b_0" arrivalPos="325.74" arrivalSpeed="11.39" duration="299.00" routeLength="2513.32" waitingTime="57.00" waitingCount="4" stopTime="0.00" timeLoss="89.64" rerouteNo="0" devices="vehroute_25 tripinfo_25 fcd_25" vType="DEFAULT_VEHTYPE" speedFactor="0.87" vaporized=""/>
    <tripinfo id="26" depart="825.00" departLane="a202_0" departPos="5.10" departSpeed="0.00" departDelay="0.98" arrival="1127.00" arrivalLane="b10_0" arrivalPos="224.30" arrivalSpeed="11.47" duration="302.00" routeLength="2971.84" waitingTime="32.00" waitingCount="2" stopTime="0.00" timeLoss="66.80" rerouteNo="0" devices="vehroute_26 tripinfo_26 fcd_26" vType="DEFAULT_VEHTYPE" speedFactor="0.92" vaporized=""/>
    <tripinfo id="32" depart="958.00" departLane="a78[0]_0" departPos="5.10" departSpeed="0.00" departDelay="0.94" arrival="1167.00" arrivalLane="b2[1][1][1]b_0" arrivalPos="325.74" arrivalSpeed="13.59" duration="209.00" routeLength="1757.08" waitingTime="58.00" waitingCount="2" stopTime="0.00" timeLoss="81.82" rerouteNo="0" devices="vehroute_32 tripinfo_32 fcd_32" vType="DEFAULT_VEHTYPE" speedFactor="1.01" vaporized=""/>
    <tripinfo id="34" depart="1000.00" departLane="a78[0]_0" departPos="5.10" departSpeed="0.00" departDelay="0.09" arrival="1167.00" arrivalLane="b2[1][1][1]b_1" arrivalPos="325.74" arrivalSpeed="13.24" duration="167.00" routeLength="1750.65" waitingTime="16.00" waitingCount="2" stopTime="0.00" timeLoss="38.65" rerouteNo="0" devices="vehroute_34 tripinfo_34 fcd_34" vType="DEFAULT_VEHTYPE" speedFactor="0.99" vaporized=""/>
    <tripinfo id="29" depart="895.00" departLane="a37_0" departPos="5.10" departSpeed="0.00" departDelay="0.11" arrival="1198.00" arrivalLane="b37_0" arrivalPos="184.77" arrivalSpeed="12.25" duration="303.00" routeLength="1759.89" waitingTime="122.00" waitingCount="4" stopTime="0.00" timeLoss="161.53" rerouteNo="0" devices="vehroute_29 tripinfo_29 fcd_29" vType="DEFAULT_VEHTYPE" speedFactor="0.93" vaporized=""/>
    <tripinfo id="33" depart="958.00" departLane="a203[0]_0" departPos="5.10" departSpeed="0.00" departDelay="0.33" arrival="1217.00" arrivalLane="b2[1][1][1]b_0" arrivalPos="325.74" arrivalSpeed="15.14" duration="259.00" routeLength="2513.32" waitingTime="66.00" waitingCount="3" stopTime="0.00" timeLoss="102.66" rerouteNo="0" devices="vehroute_33 tripinfo_33 fcd_33" vType="DEFAULT_VEHTYPE" speedFactor="1.17" vaporized=""/>
    <tripinfo id="28" depart="877.00" departLane="a202_0" departPos="5.10" departSpeed="0.00" departDelay="0.48" arrival="1260.00" arrivalLane="b10_0" arrivalPos="224.30" arrivalSpeed="15.59" duration="383.00" routeLength="2971.84" waitingTime="137.00" waitingCount="6" stopTime="0.00" timeLoss="192.61" rerouteNo="0" devices="vehroute_28 tripinfo_28 fcd_28" vType="DEFAULT_VEHTYPE" speedFactor="1.13" vaporized=""/>
    <tripinfo id="36" depart="1071.00" departLane="b39[1][1][1]_0" departPos="5.10" departSpeed="0.00" departDelay="0.52" arrival="1279.00" arrivalLane="b10_0" arrivalPos="224.30" arrivalSpeed="12.55" duration="208.00" routeLength="1887.73" waitingTime="37.00" waitingCount="3" stopTime="0.00" timeLoss="66.08" rerouteNo="0" devices="vehroute_36 tripinfo_36 fcd_36" vType="DEFAULT_VEHTYPE" speedFactor="0.97" vaporized=""/>
    <tripinfo id="30" depart="912.00" departLane="a74_0" departPos="5.10" departSpeed="0.00" departDelay="0.99" arrival="1340.00" arrivalLane="b2[1][1][1]b_0" arrivalPos="325.74" arrivalSpeed="15.93" duration="428.00" routeLength="3348.96" waitingTime="170.00" waitingCount="4" stopTime="0.00" timeLoss="220.14" rerouteNo="0" devices="vehroute_30 tripinfo_30 fcd_30" vType="DEFAULT_VEHTYPE" speedFactor="1.18" vaporized=""/>
    <tripinfo id="31" depart="956.00" departLane="a74_0" departPos="5.10" departSpeed="0.00" departDelay="0.61" arrival="1340.00" arrivalLane="b2[1][1][1]b_1" arrivalPos="325.74" arrivalSpeed="15.84" duration="384.00" routeLength="3348.96" waitingTime="133.00" waitingCount="3" stopTime="0.00" timeLoss="172.84" rerouteNo="0" devices="vehroute_31 tripinfo_31 fcd_31" vType="DEFAULT_VEHTYPE" speedFactor="1.15" vaporized=""/>
    <tripinfo id="35" depart="1006.00" departLane="a74_0" departPos="5.10" departSpeed="0.00" departDelay="0.28" arrival="1350.00" arrivalLane="b2[1][1][1]b_0" arrivalPos="325.74" arrivalSpeed="14.01" duration="344.00" routeLength="3356.41" waitingTime="63.00" waitingCount="4" stopTime="0.00" timeLoss="105.00" rerouteNo="0" devices="vehroute_35 tripinfo_35 fcd_35" vType="DEFAULT_VEHTYPE" speedFactor="1.02" vaporized=""/>
    <tripinfo id="37" depart="1165.00" departLane="a74_0" departPos="5.10" departSpeed="0.00" departDelay="0.40" arrival="1465.00" arrivalLane="b2[1][1][1]b_0" arrivalPos="325.74" arrivalSpeed="16.19" duration="300.00" routeLength="3356.41" waitingTime="42.00" waitingCount="4" stopTime="0.00" timeLoss="92.69" rerouteNo="0" devices="vehroute_37 tripinfo_37 fcd_37" vType="DEFAULT_VEHTYPE" speedFactor="1.18" vaporized=""/>
    <tripinfo id="38" depart="1276.00" departLane="a202_0" departPos="5.10" departSpeed="0.00" departDelay="0.75" arrival="1525.00" arrivalLane="b10_0" arrivalPos="224.30" arrivalSpeed="14.44" duration="249.00" routeLength="2971.84" waitingTime="18.00" waitingCount="3" stopTime="0.00" timeLoss="53.01" rerouteNo="0" devices="vehroute_38 tripinfo_38 fcd_38" vType="DEFAULT_VEHTYPE" speedFactor="1.10" vaporized=""/>
    <tripinfo id="40" depart="1338.00" departLane="a17_0" departPos="5.10" departSpeed="0.00" departDelay="0.93" arrival="1527.00" arrivalLane="b4[1][1][0]_0" arrivalPos="170.25" arrivalSpeed="13.22" duration="189.00" routeLength="1633.84" waitingTime="50.00" waitingCount="2" stopTime="0.00" timeLoss="72.46" rerouteNo="0" devices="vehroute_40 tripinfo_40 fcd_40" vType="DEFAULT_VEHTYPE" speedFactor="1.03" vaporized=""/>
    <tripinfo id="42" depart="1392.00" departLane="a17_0" departPos="5.10" departSpeed="0.00" departDelay="0.74" arrival="1528.00" arrivalLane="b4[1][1][0]_1" arrivalPos="170.25" arrivalSpeed="13.91" duration="136.00" routeLength="1621.29" waitingTime="2.00" waitingCount="1" stopTime="0.00" timeLoss="27.21" rerouteNo="0" devices="vehroute_42 tripinfo_42 fcd_42" vType="DEFAULT_VEHTYPE" speedFactor="1.09" vaporized=""/>
    <tripinfo id="43" depart="1394.00" departLane="a78[0]_0" departPos="5.10" departSpeed="0.00" departDelay="0.52" arrival="1532.00" arrivalLane="b2[1][1][1]b_0" arrivalPos="325.74" arrivalSpeed="14.28" duration="138.00" routeLength="1747.82" waitingTime="0.00" waitingCount="0" stopTime="0.00" timeLoss="14.13" rerouteNo="0" devices="vehroute_43 tripinfo_43 fcd_43" vType="DEFAULT_VEHTYPE" speedFactor="1.04" vaporized=""/>
    <tripinfo id="41" depart="1391.00" departLane="a78[0]_0" departPos="5.10" departSpeed="0.00" departDelay="0.14" arrival="1559.00" arrivalLane="b53a_0" arrivalPos="257.19" arrivalSpeed="12.79" duration="168.00" routeLength="1975.46" waitingTime="0.00" waitingCount="0" stopTime="0.00" timeLoss="15.38" rerouteNo="0" devices="vehroute_41 tripinfo_41 fcd_41" vType="DEFAULT_VEHTYPE" speedFactor="0.96" vaporized=""/>
    <tripinfo id="39" depart="1314.00" departLane="a74_0" departPos="5.10" departSpeed="0.00" departDelay="0.73" arrival="1624.00" arrivalLane="b2[1][1][1]b_0" arrivalPos="325.74" arrivalSpeed="11.63" duration="310.00" routeLength="3356.41" waitingTime="11.00" waitingCount="1" stopTime="0.00" timeLoss="38.41" rerouteNo="0" devices="vehroute_39 tripinfo_39 fcd_39" vType="DEFAULT_VEHTYPE" speedFactor="0.90" vaporized=""/>
    <tripinfo id="44" depart="1413.00" departLane="a78[0]_0" departPos="5.10" departSpeed="0.00" departDelay="0.38" arrival="1645.00" arrivalLane="b2[1][1][1]b_0" arrivalPos="325.74" arrivalSpeed="13.41" duration="232.00" routeLength="1757.08" waitingTime="93.00" waitingCount="1" stopTime="0.00" timeLoss="108.51" rerouteNo="0" devices="vehroute_44 tripinfo_44 fcd_44" vType="DEFAULT_VEHTYPE" speedFactor="1.04" vaporized=""/>
    <tripinfo id="45" depart="1458.00" departLane="a74_0" departPos="5.10" departSpeed="0.00" departDelay="0.73" arrival="1745.00" arrivalLane="b2[1][1][1]b_0" arrivalPos="325.74" arrivalSpeed="14.05" duration="287.00" routeLength="3356.41" waitingTime="29.00" waitingCount="2" stopTime="0.00" timeLoss="62.32" rerouteNo="0" devices="vehroute_45 tripinfo_45 fcd_45" vType="DEFAULT_VEHTYPE" speedFactor="1.09" vaporized=""/>
    <tripinfo id="49" depart="1621.00" departLane="a78[0]_0" departPos="5.10" departSpeed="0.00" departDelay="0.55" arrival="1785.00" arrivalLane="b2[1][1][1]b_0" arrivalPos="325.74" arrivalSpeed="10.82" duration="164.00" routeLength="1757.08" waitingTime="0.00" waitingCount="0" stopTime="0.00" timeLoss="13.04" rerouteNo="0" devices="vehroute_49 tripinfo_49 fcd_49" vType="DEFAULT_VEHTYPE" speedFactor="0.85" vaporized=""/>
    <tripinfo id="48" depart="1596.00" departLane="b39[1][1][1]_0" departPos="5.10" departSpeed="0.00" departDelay="0.22" arrival="1836.00" arrivalLane="b10_0" arrivalPos="224.30" arrivalSpeed="12.11" duration="240.00" routeLength="1887.73" waitingTime="61.00" waitingCount="2" stopTime="0.00" timeLoss="82.96" rerouteNo="0" devices="vehroute_48 tripinfo_48 fcd_48" vType="DEFAULT_VEHTYPE" speedFactor="0.88" vaporized=""/>
    <tripinfo id="46" depart="1507.00" departLane="a74_0" departPos="5.10" departSpeed="0.00" departDelay="0.11" arrival="1873.00" arrivalLane="b2[1][1][1]b_0" arrivalPos="325.74" arrivalSpeed="13.72" duration="366.00" routeLength="3348.96" waitingTime="78.00" waitingCount="5" stopTime="0.00" timeLoss="121.34" rerouteNo="0" devices="vehroute_46 tripinfo_46 fcd_46" vType="DEFAULT_VEHTYPE" speedFactor="1.00" vaporized=""/>
    <tripinfo id="47" depart="1550.00" departLane="a203[0]_0" departPos="5.10" departSpeed="0.00" departDelay="0.79" arrival="1876.00" arrivalLane="b2[1][1][1]b_0" arrivalPos="325.74" arrivalSpeed="12.10" duration="326.00" routeLength="2513.32" waitingTime="86.00" waitingCount="4" stopTime="0.00" timeLoss="122.71" rerouteNo="0" devices="vehroute_47 tripinfo_47 fcd_47" vType="DEFAULT_VEHTYPE" speedFactor="0.90" vaporized=""/>
    <tripinfo id="52" depart="1745.00" departLane="a78[0]_0" departPos="5.10" departSpeed="0.00" departDelay="0.43" arrival="1932.00" arrivalLane="b53a_0" arrivalPos="257.19" arrivalSpeed="12.91" duration="187.00" routeLength="1975.46" waitingTime="19.00" waitingCount="2" stopTime="0.00" timeLoss="44.75" rerouteNo="0" devices="vehroute_52 tripinfo_52 fcd_52" vType="DEFAULT_VEHTYPE" speedFactor="1.02" vaporized=""/>
    <tripinfo id="50" depart="1623.00" departLane="a74_0" departPos="5.10" departSpeed="0.00" departDelay="0.77" arrival="2003.00" arrivalLane="b2[1][1][1]b_0" arrivalPos="325.74" arrivalSpeed="10.83" duration="380.00" routeLength="3351.92" waitingTime="49.00" waitingCount="3" stopTime="0.00" timeLoss="94.83" rerouteNo="0" devices="vehroute_50 tripinfo_50 fcd_50" vType="DEFAULT_VEHTYPE" speedFactor="0.85" vaporized=""/>
    <tripinfo id="51" depart="1734.00" departLane="a202_0" departPos="5.10" departSpeed="0.00" departDelay="0.11" arrival="2056.00" arrivalLane="b10_0" arrivalPos="224.30" arrivalSpeed="15.75" duration="322.00" routeLength="2971.84" waitingTime="99.00" waitingCount="4" stopTime="0.00" timeLoss="137.68" rerouteNo="0" devices="vehroute_51 tripinfo_51 fcd_51" vType="DEFAULT_VEHTYPE" speedFactor="1.17" vaporized=""/>
    <tripinfo id="53" depart="1784.00" departLane="a74_0" departPos="5.10" departSpeed="0.00" departDelay="0.37" arrival="2121.00" arrivalLane="b2[1][1][1]b_0" arrivalPos="325.74" arrivalSpeed="15.16" duration="337.00" routeLength="3353.45" waitingTime="70.00" waitingCount="4" stopTime="0.00" timeLoss="114.06" rerouteNo="0" devices="vehroute_53 tripinfo_53 fcd_53" vType="DEFAULT_VEHTYPE" speedFactor="1.10" vaporized=""/>
    <tripinfo id="54" depart="1798.00" departLane="a74_0" departPos="5.10" departSpeed="0.00" departDelay="0.40" arrival="2123.00" arrivalLane="b2[1][1][1]b_0" arrivalPos="325.74" arrivalSpeed="13.34" duration="325.00" routeLength="3351.92" waitingTime="46.00" waitingCount="3" stopTime="0.00" timeLoss="81.76" rerouteNo="0" devices="vehroute_54 tripinfo_54 fcd_54" vType="DEFAULT_VEHTYPE" speedFactor="1.00" vaporized=""/>
    <tripinfo id="58" depart="2140.00" departLane="a78[0]_0" departPos="5.10" departSpeed="0.00" departDelay="0.55" arrival="2277.00" arrivalLane="b2[1][1][1]b_0" arrivalPos="325.74" arrivalSpeed="13.44" duration="137.00" routeLength="1757.08" waitingTime="0.00" waitingCount="0" stopTime="0.00" timeLoss="11.76" rerouteNo="0" devices="vehroute_58 tripinfo_58 fcd_58" vType="DEFAULT_VEHTYPE" speedFactor="1.02" vaporized=""/>
    <tripinfo id="57" depart="2096.00" departLane="a37_0" departPos="5.10" departSpeed="0.00" departDelay="0.27" arrival="2302.00" arrivalLane="b37_0" arrivalPos="184.77" arrivalSpeed="14.64" duration="206.00" routeLength="1759.89" waitingTime="45.00" waitingCount="3" stopTime="0.00" timeLoss="90.45" rerouteNo="0" devices="vehroute_57 tripinfo_57 fcd_57" vType="DEFAULT_VEHTYPE" speedFactor="1.14" vaporized=""/>
    <tripinfo id="55" depart="1892.00" departLane="a74_0" departPos="5.10" departSpeed="0.00" departDelay="0.18" arrival="2334.00" arrivalLane="b2[1][1][1]b_0" arrivalPos="325.74" arrivalSpeed="12.87" duration="442.00" routeLength="3356.41" waitingTime="151.00" waitingCount="5" stopTime="0.00" timeLoss="196.33" rerouteNo="0" devices="vehroute_55 tripinfo_55 fcd_55" vType="DEFAULT_VEHTYPE" speedFactor="1.00" vaporized=""/>
    <tripinfo id="61" depart="2225.00" departLane="a78[0]_0" departPos="5.10" departSpeed="0.00" departDelay="0.01" arrival="2397.00" arrivalLane="b2[1][1][1]b_0" arrivalPos="325.74" arrivalSpeed="14.40" duration="172.00" routeLength="1757.08" waitingTime="35.00" waitingCount="2" stopTime="0.00" timeLoss="57.55" rerouteNo="0" devices="vehroute_61 tripinfo_61 fcd_61" vType="DEFAULT_VEHTYPE" speedFactor="1.12" vaporized=""/>
    <tripinfo id="59" depart="2170.00" departLane="a210_0" departPos="5.10" departSpeed="0.00" departDelay="0.81" arrival="2443.00" arrivalLane="b10_0" arrivalPos="224.30" arrivalSpeed="12.26" duration="273.00" routeLength="2833.68" waitingTime="30.00" waitingCount="2" stopTime="0.00" timeLoss="61.97" rerouteNo="0" devices="vehroute_59 tripinfo_59 fcd_59" vType="DEFAULT_VEHTYPE" speedFactor="0.97" vaporized=""/>
    <tripinfo id="56" depart="2032.00" departLane="a202_0" departPos="5.10" departSpeed="0.00" departDelay="0.01" arrival="2447.00" arrivalLane="b10_0" arrivalPos="224.30" arrivalSpeed="12.39" duration="415.00" routeLength="2971.84" waitingTime="128.00" waitingCount="5" stopTime="0.00" timeLoss="175.23" rerouteNo="0" devices="vehroute_56 tripinfo_56 fcd_56" vType="DEFAULT_VEHTYPE" speedFactor="0.90" vaporized=""/>
    <tripinfo id="62" depart="2229.00" departLane="a202_0" departPos="5.10" departSpeed="0.00" departDelay="0.79" arrival="2500.00" arrivalLane="b10_0" arrivalPos="224.30" arrivalSpeed="14.08" duration="271.00" routeLength="2971.84" waitingTime="25.00" waitingCount="3" stopTime="0.00" timeLoss="59.11" rerouteNo="0" devices="vehroute_62 tripinfo_62 fcd_62" vType="DEFAULT_VEHTYPE" speedFactor="1.02" vaporized=""/>
    <tripinfo id="64" depart="2266.00" departLane="a78[0]_0" departPos="5.10" departSpeed="0.00" departDelay="0.52" arrival="2514.00" arrivalLane="b53a_0" arrivalPos="257.19" arrivalSpeed="12.14" duration="248.00" routeLength="1975.46" waitingTime="73.00" waitingCount="1" stopTime="0.00" timeLoss="92.91" rerouteNo="0" devices="vehroute_64 tripinfo_64 fcd_64" vType="DEFAULT_VEHTYPE" speedFactor="0.94" vaporized=""/>
    <tripinfo id="70" depart="2372.00" departLane="a78[0]_0" departPos="5.10" departSpeed="0.00" departDelay="0.71" arrival="2525.00" arrivalLane="b2[1][1][1]b_0" arrivalPos="325.74" arrivalSpeed="13.83" duration="153.00" routeLength="1757.08" waitingTime="10.00" waitingCount="1" stopTime="0.00" timeLoss="27.46" rerouteNo="0" devices="vehroute_70 tripinfo_70 fcd_70" vType="DEFAULT_VEHTYPE" speedFactor="1.02" vaporized=""/>
    <tripinfo id="66" depart="2326.00" departLane="a17_0" departPos="5.10" departSpeed="0.00" departDelay="0.08" arrival="2531.00" arrivalLane="b4[1][1][0]_0" arrivalPos="170.25" arrivalSpeed="12.19" duration="205.00" routeLength="1633.84" waitingTime="43.00" waitingCount="3" stopTime="0.00" timeLoss="71.86" rerouteNo="0" devices="vehroute_66 tripinfo_66 fcd_66" vType="DEFAULT_VEHTYPE" speedFactor="0.91" vaporized=""/>
    <tripinfo id="60" depart="2211.00" departLane="a74_0" departPos="5.10" departSpeed="0.00" departDelay="0.31" arrival="2574.00" arrivalLane="b2[1][1][1]b_0" arrivalPos="325.74" arrivalSpeed="13.79" duration="363.00" routeLength="3353.45" waitingTime="90.00" waitingCount="4" stopTime="0.00" timeLoss="136.97" rerouteNo="0" devices="vehroute_60 tripinfo_60 fcd_60" vType="DEFAULT_VEHTYPE" speedFactor="1.08" vaporized=""/>
    <tripinfo id="63" depart="2231.00" departLane="a74_0" departPos="5.10" departSpeed="0.00" departDelay="0.81" arrival="2581.00" arrivalLane="b2[1][1][1]b_0" arrivalPos="325.74" arrivalSpeed="13.63" duration="350.00" routeLength="3348.96" waitingTime="62.00" waitingCount="3" stopTime="0.00" timeLoss="102.09" rerouteNo="0" devices="vehroute_63 tripinfo_63 fcd_63" vType="DEFAULT_VEHTYPE" speedFactor="0.99" vaporized=""/>