<?xml version="1.0" encoding="UTF-8"?>

<!-- generated on 2025-03-21 17:57:04 by Eclipse SUMO sumo Version 1.21.0
<sumoConfiguration xmlns:xsi="http://www.w3.org/2001/XMLSchema-instance" xsi:noNamespaceSchemaLocation="http://sumo.dlr.de/xsd/sumoConfiguration.xsd">

    <input>
        <net-file value="${STATICPATH}/joined_lanes.net.xml"/>
        <route-files value="${SIMULATIONPATH}/generatedRoutes.rou.xml"/>
        <additional-files value="${STATICPATH}/detectors.add.xml,${STATICPATH}/joined_vtypes.add.xml,${STATICPATH}/joined_tls.add.xml"/>
    </input>

    <output>
        <fcd-output value="${SIMULATIONPATH}/fcd.xml"/>
        <queue-output value="${SIMULATIONPATH}/queue.xml"/>
        <summary-output value="${SIMULATIONPATH}/summary.xml"/>
        <tripinfo-output value="${SIMULATIONPATH}/tripinfos.xml"/>
        <vehroute-output value="${SIMULATIONPATH}/vehroute.xml"/>
        <save-state.prefix value="configs\state"/>
    </output>

    <processing>
        <ignore-junction-blocker value="1"/>
        <ignore-route-errors value="true"/>
        <time-to-teleport value="-1"/>
    </processing>

    <report>
        <log value="C:/Users/fabio/Desktop/sumo_log.txt"/>
        <no-step-log value="true"/>
    </report>

    <emissions>
        <phemlight-path value="configs\./PHEMlight/"/>
    </emissions>

    <traci_server>
        <remote-port value="60253"/>
    </traci_server>

</sumoConfiguration>
-->

<fcd-export xmlns:xsi="http://www.w3.org/2001/XMLSchema-instance" xsi:noNamespaceSchemaLocation="http://sumo.dlr.de/xsd/fcd_file.xsd">
    <timestep time="0.00"/>
    <timestep time="1.00"/>
    <timestep time="2.00">
        <vehicle id="0" x="916.90" y="834.40" angle="202.46" type="DEFAULT_VEHTYPE" speed="0.00" pos="5.10" lane="a67_0" slope="0.00"/>
    </timestep>
    <timestep time="3.00">
        <vehicle id="0" x="916.13" y="832.52" angle="202.46" type="DEFAULT_VEHTYPE" speed="2.03" pos="7.13" lane="a67_0" slope="0.00"/>
    </timestep>
    <timestep time="4.00">
        <vehicle id="0" x="914.60" y="828.84" angle="202.46" type="DEFAULT_VEHTYPE" speed="3.98" pos="11.11" lane="a67_0" slope="0.00"/>
    </timestep>
    <timestep time="5.00">
        <vehicle id="0" x="915.06" y="821.57" angle="202.47" type="DEFAULT_VEHTYPE" speed="6.54" pos="17.66" lane="a67_1" slope="0.00"/>
    </timestep>
    <timestep time="6.00">
        <vehicle id="0" x="912.01" y="814.20" angle="202.47" type="DEFAULT_VEHTYPE" speed="7.98" pos="25.63" lane="a67_1" slope="0.00"/>
    </timestep>
    <timestep time="7.00">
        <vehicle id="0" x="907.97" y="804.43" angle="202.47" type="DEFAULT_VEHTYPE" speed="10.58" pos="36.21" lane="a67_1" slope="0.00"/>
    </timestep>
    <timestep time="8.00">
        <vehicle id="0" x="903.14" y="792.63" angle="201.95" type="DEFAULT_VEHTYPE" speed="12.75" pos="48.96" lane="a67_1" slope="0.00"/>
    </timestep>
    <timestep time="9.00">
        <vehicle id="0" x="897.72" y="779.13" angle="201.87" type="DEFAULT_VEHTYPE" speed="14.55" pos="63.51" lane="a67_1" slope="0.00"/>
    </timestep>
    <timestep time="10.00">
        <vehicle id="0" x="892.45" y="765.99" angle="201.87" type="DEFAULT_VEHTYPE" speed="14.16" pos="77.67" lane="a67_1" slope="0.00"/>
    </timestep>
    <timestep time="11.00">
        <vehicle id="0" x="887.03" y="752.49" angle="201.87" type="DEFAULT_VEHTYPE" speed="14.54" pos="92.21" lane="a67_1" slope="0.00"/>
    </timestep>
    <timestep time="12.00">
        <vehicle id="0" x="881.97" y="739.87" angle="201.87" type="DEFAULT_VEHTYPE" speed="13.60" pos="105.81" lane="a67_1" slope="0.00"/>
    </timestep>
    <timestep time="13.00">
        <vehicle id="0" x="876.57" y="727.52" angle="204.78" type="DEFAULT_VEHTYPE" speed="13.48" pos="7.96" lane=":a23_1_0" slope="0.00"/>
    </timestep>
    <timestep time="14.00">
        <vehicle id="0" x="870.44" y="714.23" angle="204.78" type="DEFAULT_VEHTYPE" speed="14.65" pos="22.60" lane=":a23_1_0" slope="0.00"/>
    </timestep>
    <timestep time="15.00">
        <vehicle id="0" x="864.78" y="701.69" angle="203.39" type="DEFAULT_VEHTYPE" speed="13.75" pos="3.67" lane="a80_0" slope="0.00"/>
    </timestep>
    <timestep time="16.00">
        <vehicle id="0" x="859.47" y="689.10" angle="202.88" type="DEFAULT_VEHTYPE" speed="13.67" pos="17.33" lane="a80_0" slope="0.00"/>
    </timestep>
    <timestep time="17.00">
        <vehicle id="0" x="854.21" y="676.64" angle="202.88" type="DEFAULT_VEHTYPE" speed="13.53" pos="30.86" lane="a80_0" slope="0.00"/>
    </timestep>
    <timestep time="18.00">
        <vehicle id="0" x="848.70" y="663.59" angle="202.88" type="DEFAULT_VEHTYPE" speed="14.17" pos="45.02" lane="a80_0" slope="0.00"/>
    </timestep>
    <timestep time="19.00">
        <vehicle id="0" x="843.38" y="650.97" angle="202.88" type="DEFAULT_VEHTYPE" speed="13.69" pos="58.71" lane="a80_0" slope="0.00"/>
    </timestep>
    <timestep time="20.00">
        <vehicle id="0" x="838.00" y="638.22" angle="202.88" type="DEFAULT_VEHTYPE" speed="13.85" pos="72.56" lane="a80_0" slope="0.00"/>
    </timestep>
    <timestep time="21.00">
        <vehicle id="0" x="832.68" y="625.41" angle="202.53" type="DEFAULT_VEHTYPE" speed="13.86" pos="86.42" lane="a80_0" slope="0.00"/>
    </timestep>
    <timestep time="22.00">
        <vehicle id="0" x="827.15" y="612.09" angle="202.53" type="DEFAULT_VEHTYPE" speed="14.42" pos="100.85" lane="a80_0" slope="0.00"/>
    </timestep>
    <timestep time="23.00">
        <vehicle id="0" x="821.64" y="598.81" angle="202.53" type="DEFAULT_VEHTYPE" speed="14.38" pos="115.23" lane="a80_0" slope="0.00"/>
    </timestep>
    <timestep time="24.00">
        <vehicle id="0" x="815.41" y="586.07" angle="212.63" type="DEFAULT_VEHTYPE" speed="14.26" pos="4.33" lane=":a56_0_0" slope="0.00"/>
    </timestep>
    <timestep time="25.00">
        <vehicle id="0" x="814.19" y="576.11" angle="201.15" type="DEFAULT_VEHTYPE" speed="9.82" pos="5.97" lane="a127_1" slope="0.00"/>
    </timestep>
    <timestep time="26.00">
        <vehicle id="0" x="812.00" y="570.43" angle="201.15" type="DEFAULT_VEHTYPE" speed="6.08" pos="12.05" lane="a127_1" slope="0.00"/>
    </timestep>
    <timestep time="27.00">
        <vehicle id="0" x="808.88" y="563.38" angle="205.36" type="DEFAULT_VEHTYPE" speed="7.72" pos="4.10" lane=":a42_0_1" slope="0.00"/>
    </timestep>
    <timestep time="28.00">
        <vehicle id="0" x="800.85" y="558.30" angle="253.18" type="DEFAULT_VEHTYPE" speed="10.10" pos="2.45" lane="a77[1][0]_1" slope="0.00"/>
    </timestep>
    <timestep time="29.00">
        <vehicle id="0" x="790.60" y="553.21" angle="234.87" type="DEFAULT_VEHTYPE" speed="12.51" pos="14.96" lane="a77[1][0]_1" slope="0.00"/>
    </timestep>
    <timestep time="30.00">
        <vehicle id="0" x="786.17" y="542.26" angle="182.61" type="DEFAULT_VEHTYPE" speed="13.46" pos="28.42" lane="a77[1][0]_1" slope="0.00"/>
    </timestep>
    <timestep time="31.00">
        <vehicle id="0" x="786.34" y="531.36" angle="150.18" type="DEFAULT_VEHTYPE" speed="10.84" pos="1.94" lane=":a20b_2_0" slope="0.00"/>
    </timestep>
    <timestep time="32.00">
        <vehicle id="0" x="796.63" y="523.26" angle="119.23" type="DEFAULT_VEHTYPE" speed="12.56" pos="4.52" lane=":a20c_1_0" slope="0.00"/>
    </timestep>
    <timestep time="33.00">
        <vehicle id="0" x="806.82" y="522.07" angle="85.13" type="DEFAULT_VEHTYPE" speed="9.45" pos="0.37" lane="a53cd_0" slope="0.00"/>
    </timestep>
    <timestep time="34.00">
        <vehicle id="0" x="817.01" y="526.68" angle="60.09" type="DEFAULT_VEHTYPE" speed="10.77" pos="8.87" lane=":a39_1_0" slope="0.00"/>
    </timestep>
    <timestep time="35.00">
        <vehicle id="0" x="824.42" y="538.60" angle="15.28" type="DEFAULT_VEHTYPE" speed="13.32" pos="5.57" lane=":a40_2_0" slope="0.00"/>
    </timestep>
    <timestep time="36.00">
        <vehicle id="0" x="821.65" y="551.91" angle="335.87" type="DEFAULT_VEHTYPE" speed="12.88" pos="18.45" lane=":a40_2_0" slope="0.00"/>
    </timestep>
    <timestep time="37.00">
        <vehicle id="0" x="816.63" y="558.99" angle="323.61" type="DEFAULT_VEHTYPE" speed="8.54" pos="1.54" lane=":a41_0_0" slope="0.00"/>
    </timestep>
    <timestep time="38.00">
        <vehicle id="0" x="816.34" y="567.32" angle="1.04" type="DEFAULT_VEHTYPE" speed="8.40" pos="4.31" lane="a79_0" slope="0.00"/>
    </timestep>
    <timestep time="39.00">
        <vehicle id="0" x="818.37" y="576.93" angle="17.77" type="DEFAULT_VEHTYPE" speed="9.92" pos="14.23" lane="a79_0" slope="0.00"/>
    </timestep>
    <timestep time="40.00">
        <vehicle id="0" x="822.89" y="588.16" angle="21.96" type="DEFAULT_VEHTYPE" speed="12.10" pos="26.33" lane="a79_0" slope="0.00"/>
    </timestep>
    <timestep time="41.00">
        <vehicle id="0" x="828.33" y="601.65" angle="21.96" type="DEFAULT_VEHTYPE" speed="14.55" pos="40.88" lane="a79_0" slope="0.00"/>
    </timestep>
    <timestep time="42.00">
        <vehicle id="0" x="833.60" y="614.72" angle="21.96" type="DEFAULT_VEHTYPE" speed="14.09" pos="54.98" lane="a79_0" slope="0.00"/>
    </timestep>
    <timestep time="43.00">
        <vehicle id="0" x="838.78" y="627.57" angle="21.96" type="DEFAULT_VEHTYPE" speed="13.85" pos="68.83" lane="a79_0" slope="0.00"/>
    </timestep>
    <timestep time="44.00">
        <vehicle id="0" x="843.91" y="640.13" angle="22.61" type="DEFAULT_VEHTYPE" speed="13.56" pos="82.40" lane="a79_0" slope="0.00"/>
    </timestep>
    <timestep time="45.00">
        <vehicle id="0" x="849.48" y="653.10" angle="23.22" type="DEFAULT_VEHTYPE" speed="14.12" pos="96.51" lane="a79_0" slope="0.00"/>
    </timestep>
    <timestep time="46.00">
        <vehicle id="0" x="855.14" y="666.29" angle="23.22" type="DEFAULT_VEHTYPE" speed="14.35" pos="110.87" lane="a79_0" slope="0.00"/>
    </timestep>
    <timestep time="47.00">
        <vehicle id="0" x="860.63" y="679.10" angle="23.22" type="DEFAULT_VEHTYPE" speed="13.94" pos="124.81" lane="a79_0" slope="0.00"/>
    </timestep>
    <timestep time="48.00">
        <vehicle id="0" x="866.30" y="692.30" angle="23.22" type="DEFAULT_VEHTYPE" speed="14.36" pos="139.17" lane="a79_0" slope="0.00"/>
    </timestep>
    <timestep time="49.00">
        <vehicle id="0" x="871.95" y="705.06" angle="25.16" type="DEFAULT_VEHTYPE" speed="13.96" pos="2.23" lane=":a23_3_0" slope="0.00"/>
    </timestep>
    <timestep time="50.00">
        <vehicle id="0" x="878.40" y="717.42" angle="27.56" type="DEFAULT_VEHTYPE" speed="13.91" pos="16.14" lane=":a23_3_0" slope="0.00"/>
    </timestep>
    <timestep time="51.00">
        <vehicle id="0" x="884.94" y="729.94" angle="27.56" type="DEFAULT_VEHTYPE" speed="14.10" pos="30.24" lane=":a23_3_0" slope="0.00"/>
    </timestep>
    <timestep time="52.00">
        <vehicle id="0" x="890.39" y="742.67" angle="22.22" type="DEFAULT_VEHTYPE" speed="13.85" pos="11.30" lane="a68_0" slope="0.00"/>
    </timestep>
    <timestep time="53.00">
        <vehicle id="0" x="895.74" y="755.77" angle="22.22" type="DEFAULT_VEHTYPE" speed="14.14" pos="25.44" lane="a68_0" slope="0.00"/>
    </timestep>
    <timestep time="54.00">
        <vehicle id="0" x="901.02" y="768.70" angle="22.22" type="DEFAULT_VEHTYPE" speed="13.96" pos="39.40" lane="a68_0" slope="0.00"/>
    </timestep>
    <timestep time="55.00">
        <vehicle id="0" x="906.38" y="782.13" angle="21.52" type="DEFAULT_VEHTYPE" speed="14.46" pos="53.86" lane="a68_0" slope="0.00"/>
    </timestep>
    <timestep time="56.00">
        <vehicle id="0" x="911.76" y="795.76" angle="21.52" type="DEFAULT_VEHTYPE" speed="14.64" pos="68.50" lane="a68_0" slope="0.00"/>
    </timestep>
    <timestep time="57.00">
        <vehicle id="0" x="919.00" y="807.50" angle="22.71" type="DEFAULT_VEHTYPE" speed="13.81" pos="4.76" lane="a11_0" slope="0.00"/>
    </timestep>
    <timestep time="58.00">
        <vehicle id="0" x="924.19" y="820.17" angle="22.30" type="DEFAULT_VEHTYPE" speed="13.70" pos="18.46" lane="a11_0" slope="0.00"/>
    </timestep>
    <timestep time="59.00">
        <vehicle id="0" x="927.68" y="828.68" angle="22.30" type="DEFAULT_VEHTYPE" speed="9.20" pos="27.65" lane="a11_0" slope="0.00"/>
    </timestep>
    <timestep time="60.00">
        <vehicle id="0" x="929.46" y="833.03" angle="22.30" type="DEFAULT_VEHTYPE" speed="4.70" pos="32.35" lane="a11_0" slope="0.00"/>
    </timestep>
    <timestep time="61.00">
        <vehicle id="0" x="929.66" y="833.51" angle="22.30" type="DEFAULT_VEHTYPE" speed="0.52" pos="32.87" lane="a11_0" slope="0.00"/>
    </timestep>
    <timestep time="62.00">
        <vehicle id="0" x="929.67" y="833.54" angle="22.30" type="DEFAULT_VEHTYPE" speed="0.03" pos="32.90" lane="a11_0" slope="0.00"/>
    </timestep>
    <timestep time="63.00">
        <vehicle id="0" x="929.68" y="833.55" angle="22.30" type="DEFAULT_VEHTYPE" speed="0.01" pos="32.91" lane="a11_0" slope="0.00"/>
    </timestep>
    <timestep time="64.00">
        <vehicle id="0" x="929.68" y="833.55" angle="22.30" type="DEFAULT_VEHTYPE" speed="0.00" pos="32.92" lane="a11_0" slope="0.00"/>
        <vehicle id="1" x="1333.43" y="5.88" angle="10.07" type="DEFAULT_VEHTYPE" speed="0.00" pos="5.10" lane="a195_0" slope="0.00"/>
    </timestep>
    <timestep time="65.00">
        <vehicle id="0" x="929.68" y="833.55" angle="22.30" type="DEFAULT_VEHTYPE" speed="0.00" pos="32.92" lane="a11_0" slope="0.00"/>
        <vehicle id="1" x="1333.84" y="8.19" angle="10.07" type="DEFAULT_VEHTYPE" speed="2.34" pos="7.44" lane="a195_0" slope="0.00"/>
    </timestep>
    <timestep time="66.00">
        <vehicle id="0" x="929.68" y="833.55" angle="22.30" type="DEFAULT_VEHTYPE" speed="0.00" pos="32.92" lane="a11_0" slope="0.00"/>
        <vehicle id="1" x="1334.50" y="11.91" angle="10.07" type="DEFAULT_VEHTYPE" speed="3.78" pos="11.22" lane="a195_0" slope="0.00"/>
    </timestep>
    <timestep time="67.00">
        <vehicle id="0" x="929.68" y="833.55" angle="22.30" type="DEFAULT_VEHTYPE" speed="0.00" pos="32.92" lane="a11_0" slope="0.00"/>
        <vehicle id="1" x="1335.95" y="17.97" angle="13.95" type="DEFAULT_VEHTYPE" speed="6.23" pos="17.45" lane="a195_0" slope="0.00"/>
    </timestep>
    <timestep time="68.00">
        <vehicle id="0" x="929.68" y="833.55" angle="22.30" type="DEFAULT_VEHTYPE" speed="0.00" pos="32.92" lane="a11_0" slope="0.00"/>
        <vehicle id="1" x="1337.90" y="25.82" angle="13.95" type="DEFAULT_VEHTYPE" speed="8.09" pos="25.55" lane="a195_0" slope="0.00"/>
    </timestep>
    <timestep time="69.00">
        <vehicle id="0" x="929.68" y="833.55" angle="22.30" type="DEFAULT_VEHTYPE" speed="0.00" pos="32.92" lane="a11_0" slope="0.00"/>
        <vehicle id="1" x="1340.41" y="35.91" angle="13.95" type="DEFAULT_VEHTYPE" speed="10.40" pos="35.94" lane="a195_0" slope="0.00"/>
    </timestep>
    <timestep time="70.00">
        <vehicle id="0" x="929.68" y="833.55" angle="22.30" type="DEFAULT_VEHTYPE" speed="0.00" pos="32.92" lane="a11_0" slope="0.00"/>
        <vehicle id="1" x="1343.92" y="47.90" angle="16.93" type="DEFAULT_VEHTYPE" speed="12.49" pos="48.44" lane="a195_0" slope="0.00"/>
    </timestep>
    <timestep time="71.00">
        <vehicle id="0" x="929.68" y="833.55" angle="22.30" type="DEFAULT_VEHTYPE" speed="0.00" pos="32.92" lane="a11_0" slope="0.00"/>
        <vehicle id="1" x="1347.27" y="59.29" angle="16.22" type="DEFAULT_VEHTYPE" speed="11.87" pos="60.31" lane="a195_0" slope="0.00"/>
    </timestep>
    <timestep time="72.00">
        <vehicle id="0" x="929.68" y="833.55" angle="22.30" type="DEFAULT_VEHTYPE" speed="0.00" pos="32.92" lane="a11_0" slope="0.00"/>
        <vehicle id="1" x="1350.67" y="71.00" angle="16.22" type="DEFAULT_VEHTYPE" speed="12.20" pos="72.51" lane="a195_0" slope="0.00"/>
    </timestep>
    <timestep time="73.00">
        <vehicle id="0" x="929.68" y="833.55" angle="22.30" type="DEFAULT_VEHTYPE" speed="0.00" pos="32.92" lane="a11_0" slope="0.00"/>
        <vehicle id="1" x="1354.00" y="82.43" angle="16.22" type="DEFAULT_VEHTYPE" speed="11.91" pos="84.41" lane="a195_0" slope="0.00"/>
    </timestep>
    <timestep time="74.00">
        <vehicle id="0" x="929.68" y="833.55" angle="22.30" type="DEFAULT_VEHTYPE" speed="0.00" pos="32.92" lane="a11_0" slope="0.00"/>
        <vehicle id="1" x="1357.64" y="93.78" angle="18.83" type="DEFAULT_VEHTYPE" speed="11.92" pos="96.33" lane="a195_0" slope="0.00"/>
    </timestep>
    <timestep time="75.00">
        <vehicle id="0" x="929.68" y="833.55" angle="22.30" type="DEFAULT_VEHTYPE" speed="0.00" pos="32.92" lane="a11_0" slope="0.00"/>
        <vehicle id="1" x="1361.51" y="105.13" angle="18.83" type="DEFAULT_VEHTYPE" speed="11.99" pos="108.32" lane="a195_0" slope="0.00"/>
    </timestep>
    <timestep time="76.00">
        <vehicle id="0" x="929.68" y="833.55" angle="22.30" type="DEFAULT_VEHTYPE" speed="0.00" pos="32.92" lane="a11_0" slope="0.00"/>
        <vehicle id="1" x="1365.49" y="116.79" angle="18.83" type="DEFAULT_VEHTYPE" speed="12.32" pos="120.64" lane="a195_0" slope="0.00"/>
    </timestep>
    <timestep time="77.00">
        <vehicle id="0" x="929.68" y="833.55" angle="22.30" type="DEFAULT_VEHTYPE" speed="0.00" pos="32.92" lane="a11_0" slope="0.00"/>
        <vehicle id="1" x="1367.85" y="124.23" angle="16.97" type="DEFAULT_VEHTYPE" speed="7.82" pos="1.52" lane=":a50_2_0" slope="0.00"/>
    </timestep>
    <timestep time="78.00">
        <vehicle id="0" x="930.22" y="834.99" angle="21.78" type="DEFAULT_VEHTYPE" speed="1.54" pos="0.54" lane=":a9_8_0" slope="0.00"/>
        <vehicle id="1" x="1368.27" y="131.41" angle="358.95" type="DEFAULT_VEHTYPE" speed="7.29" pos="8.81" lane=":a50_2_0" slope="0.00"/>
    </timestep>
    <timestep time="79.00">
        <vehicle id="0" x="931.44" y="838.85" angle="17.86" type="DEFAULT_VEHTYPE" speed="4.05" pos="4.59" lane=":a9_8_0" slope="0.00"/>
        <vehicle id="1" x="1366.25" y="134.63" angle="333.94" type="DEFAULT_VEHTYPE" speed="3.85" pos="12.65" lane=":a50_2_0" slope="0.00"/>
    </timestep>
    <timestep time="80.00">
        <vehicle id="0" x="933.30" y="844.80" angle="17.46" type="DEFAULT_VEHTYPE" speed="6.23" pos="10.82" lane=":a9_8_0" slope="0.00"/>
        <vehicle id="1" x="1360.58" y="137.25" angle="293.61" type="DEFAULT_VEHTYPE" speed="6.27" pos="2.49" lane="a159_0" slope="0.00"/>
    </timestep>
    <timestep time="81.00">
        <vehicle id="0" x="934.91" y="853.15" angle="10.68" type="DEFAULT_VEHTYPE" speed="8.51" pos="19.33" lane=":a9_8_0" slope="0.00"/>
        <vehicle id="1" x="1352.28" y="139.98" angle="288.24" type="DEFAULT_VEHTYPE" speed="8.74" pos="11.23" lane="a159_0" slope="0.00"/>
    </timestep>
    <timestep time="82.00">
        <vehicle id="0" x="936.52" y="863.86" angle="8.11" type="DEFAULT_VEHTYPE" speed="10.84" pos="30.17" lane=":a9_8_0" slope="0.00"/>
        <vehicle id="1" x="1342.53" y="143.20" angle="288.24" type="DEFAULT_VEHTYPE" speed="10.26" pos="21.49" lane="a159_0" slope="0.00"/>
    </timestep>
    <timestep time="83.00">
        <vehicle id="0" x="940.04" y="875.72" angle="20.21" type="DEFAULT_VEHTYPE" speed="12.40" pos="7.13" lane="b38[0]_0" slope="0.00"/>
        <vehicle id="1" x="1330.83" y="147.05" angle="288.24" type="DEFAULT_VEHTYPE" speed="12.32" pos="33.81" lane="a159_0" slope="0.00"/>
        <vehicle id="2" x="2040.84" y="90.73" angle="347.99" type="DEFAULT_VEHTYPE" speed="0.00" pos="5.10" lane="a210_0" slope="0.00"/>
    </timestep>
    <timestep time="84.00">
        <vehicle id="0" x="944.92" y="888.95" angle="20.21" type="DEFAULT_VEHTYPE" speed="14.10" pos="21.23" lane="b38[0]_0" slope="0.00"/>
        <vehicle id="1" x="1319.06" y="150.93" angle="288.24" type="DEFAULT_VEHTYPE" speed="12.39" pos="46.20" lane="a159_0" slope="0.00"/>
        <vehicle id="2" x="2040.39" y="92.83" angle="347.99" type="DEFAULT_VEHTYPE" speed="2.14" pos="7.24" lane="a210_0" slope="0.00"/>
    </timestep>
    <timestep time="85.00">
        <vehicle id="0" x="949.57" y="901.60" angle="20.21" type="DEFAULT_VEHTYPE" speed="13.47" pos="34.71" lane="b38[0]_0" slope="0.00"/>
        <vehicle id="1" x="1307.22" y="154.83" angle="288.24" type="DEFAULT_VEHTYPE" speed="12.47" pos="58.67" lane="a159_0" slope="0.00"/>
        <vehicle id="2" x="2039.65" y="96.30" angle="347.99" type="DEFAULT_VEHTYPE" speed="3.55" pos="10.79" lane="a210_0" slope="0.00"/>
    </timestep>
    <timestep time="86.00">
        <vehicle id="0" x="954.60" y="915.25" angle="20.21" type="DEFAULT_VEHTYPE" speed="14.55" pos="49.26" lane="b38[0]_0" slope="0.00"/>
        <vehicle id="1" x="1295.70" y="158.63" angle="288.24" type="DEFAULT_VEHTYPE" speed="12.13" pos="70.80" lane="a159_0" slope="0.00"/>
        <vehicle id="2" x="2038.59" y="101.28" angle="347.99" type="DEFAULT_VEHTYPE" speed="5.09" pos="15.88" lane="a210_0" slope="0.00"/>
    </timestep>
    <timestep time="87.00">
        <vehicle id="0" x="959.52" y="928.45" angle="20.80" type="DEFAULT_VEHTYPE" speed="14.09" pos="2.65" lane=":b35_3_0" slope="0.00"/>
        <vehicle id="1" x="1283.64" y="162.60" angle="288.24" type="DEFAULT_VEHTYPE" speed="12.69" pos="83.49" lane="a159_0" slope="0.00"/>
        <vehicle id="2" x="2037.20" y="107.84" angle="347.99" type="DEFAULT_VEHTYPE" speed="6.71" pos="22.59" lane="a210_0" slope="0.00"/>
    </timestep>
    <timestep time="88.00">
        <vehicle id="0" x="964.57" y="940.97" angle="22.37" type="DEFAULT_VEHTYPE" speed="13.50" pos="8.37" lane="b38[0]a_0" slope="0.00"/>
        <vehicle id="1" x="1272.40" y="166.30" angle="288.24" type="DEFAULT_VEHTYPE" speed="11.84" pos="95.34" lane="a159_0" slope="0.00"/>
        <vehicle id="2" x="2035.39" y="116.31" angle="347.99" type="DEFAULT_VEHTYPE" speed="8.66" pos="31.25" lane="a210_0" slope="0.00"/>
    </timestep>
    <timestep time="89.00">
        <vehicle id="0" x="970.07" y="954.35" angle="22.37" type="DEFAULT_VEHTYPE" speed="14.47" pos="22.84" lane="b38[0]a_0" slope="0.00"/>
        <vehicle id="1" x="1260.34" y="170.28" angle="288.24" type="DEFAULT_VEHTYPE" speed="12.70" pos="108.03" lane="a159_0" slope="0.00"/>
        <vehicle id="2" x="2033.15" y="126.86" angle="347.99" type="DEFAULT_VEHTYPE" speed="10.78" pos="42.03" lane="a210_0" slope="0.00"/>
    </timestep>
    <timestep time="90.00">
        <vehicle id="0" x="975.34" y="967.15" angle="22.37" type="DEFAULT_VEHTYPE" speed="13.84" pos="36.69" lane="b38[0]a_0" slope="0.00"/>
        <vehicle id="1" x="1248.91" y="174.04" angle="288.24" type="DEFAULT_VEHTYPE" speed="12.03" pos="120.06" lane="a159_0" slope="0.00"/>
        <vehicle id="2" x="2030.68" y="139.09" angle="348.61" type="DEFAULT_VEHTYPE" speed="12.47" pos="54.50" lane="a210_0" slope="0.00"/>
    </timestep>
    <timestep time="91.00">
        <vehicle id="0" x="980.58" y="979.87" angle="22.37" type="DEFAULT_VEHTYPE" speed="13.75" pos="50.44" lane="b38[0]a_0" slope="0.00"/>
        <vehicle id="1" x="1236.63" y="178.09" angle="288.24" type="DEFAULT_VEHTYPE" speed="12.94" pos="133.00" lane="a159_0" slope="0.00"/>
        <vehicle id="2" x="2027.74" y="151.87" angle="346.12" type="DEFAULT_VEHTYPE" speed="13.11" pos="67.61" lane="a210_0" slope="0.00"/>
    </timestep>
    <timestep time="92.00">
        <vehicle id="0" x="986.13" y="993.37" angle="22.37" type="DEFAULT_VEHTYPE" speed="14.60" pos="65.03" lane="b38[0]a_0" slope="0.00"/>
        <vehicle id="1" x="1224.74" y="182.01" angle="288.24" type="DEFAULT_VEHTYPE" speed="12.52" pos="145.52" lane="a159_0" slope="0.00"/>
        <vehicle id="2" x="2024.68" y="165.28" angle="348.93" type="DEFAULT_VEHTYPE" speed="13.76" pos="81.36" lane="a210_0" slope="0.00"/>
    </timestep>
    <timestep time="93.00">
        <vehicle id="0" x="991.38" y="1006.05" angle="22.47" type="DEFAULT_VEHTYPE" speed="13.72" pos="12.88" lane=":b32_7_0" slope="0.00"/>
        <vehicle id="1" x="1212.42" y="186.06" angle="288.24" type="DEFAULT_VEHTYPE" speed="12.97" pos="158.49" lane="a159_0" slope="0.00"/>
        <vehicle id="2" x="2022.24" y="178.15" angle="349.25" type="DEFAULT_VEHTYPE" speed="13.10" pos="94.46" lane="a210_0" slope="0.00"/>
    </timestep>
    <timestep time="94.00">
        <vehicle id="0" x="996.99" y="1019.56" angle="22.57" type="DEFAULT_VEHTYPE" speed="14.63" pos="12.97" lane="b38[1][0]_0" slope="0.00"/>
        <vehicle id="1" x="1200.96" y="189.84" angle="288.24" type="DEFAULT_VEHTYPE" speed="12.06" pos="170.55" lane="a159_0" slope="0.00"/>
        <vehicle id="2" x="2019.86" y="190.67" angle="349.25" type="DEFAULT_VEHTYPE" speed="12.74" pos="107.20" lane="a210_0" slope="0.00"/>
    </timestep>
    <timestep time="95.00">
        <vehicle id="0" x="1002.60" y="1033.06" angle="22.57" type="DEFAULT_VEHTYPE" speed="14.62" pos="27.59" lane="b38[1][0]_0" slope="0.00"/>
        <vehicle id="1" x="1188.95" y="193.80" angle="288.24" type="DEFAULT_VEHTYPE" speed="12.65" pos="183.20" lane="a159_0" slope="0.00"/>
        <vehicle id="2" x="2015.98" y="204.01" angle="343.39" type="DEFAULT_VEHTYPE" speed="13.89" pos="121.09" lane="a210_0" slope="0.00"/>
    </timestep>
    <timestep time="96.00">
        <vehicle id="0" x="1007.97" y="1045.97" angle="22.57" type="DEFAULT_VEHTYPE" speed="13.99" pos="41.58" lane="b38[1][0]_0" slope="0.00"/>
        <vehicle id="1" x="1177.25" y="197.65" angle="288.24" type="DEFAULT_VEHTYPE" speed="12.32" pos="195.52" lane="a159_0" slope="0.00"/>
        <vehicle id="2" x="2012.34" y="216.22" angle="343.39" type="DEFAULT_VEHTYPE" speed="12.74" pos="133.83" lane="a210_0" slope="0.00"/>
    </timestep>
    <timestep time="97.00">
        <vehicle id="0" x="1013.60" y="1059.52" angle="22.57" type="DEFAULT_VEHTYPE" speed="14.67" pos="56.25" lane="b38[1][0]_0" slope="0.00"/>
        <vehicle id="1" x="1165.74" y="201.44" angle="288.24" type="DEFAULT_VEHTYPE" speed="12.12" pos="207.64" lane="a159_0" slope="0.00"/>
        <vehicle id="2" x="2008.41" y="229.39" angle="343.39" type="DEFAULT_VEHTYPE" speed="13.74" pos="147.57" lane="a210_0" slope="0.00"/>
    </timestep>
    <timestep time="98.00">
        <vehicle id="0" x="1019.10" y="1072.76" angle="22.57" type="DEFAULT_VEHTYPE" speed="14.34" pos="70.59" lane="b38[1][0]_0" slope="0.00"/>
        <vehicle id="1" x="1154.38" y="205.18" angle="288.24" type="DEFAULT_VEHTYPE" speed="11.96" pos="219.59" lane="a159_0" slope="0.00"/>
        <vehicle id="2" x="2004.64" y="242.03" angle="343.39" type="DEFAULT_VEHTYPE" speed="13.19" pos="160.76" lane="a210_0" slope="0.00"/>
    </timestep>
    <timestep time="99.00">
        <vehicle id="0" x="1024.69" y="1086.21" angle="22.57" type="DEFAULT_VEHTYPE" speed="14.56" pos="85.15" lane="b38[1][0]_0" slope="0.00"/>
        <vehicle id="1" x="1142.82" y="208.96" angle="287.89" type="DEFAULT_VEHTYPE" speed="12.16" pos="4.12" lane=":a32_2_0" slope="0.00"/>
        <vehicle id="2" x="2000.80" y="254.90" angle="343.39" type="DEFAULT_VEHTYPE" speed="13.42" pos="174.18" lane="a210_0" slope="0.00"/>
    </timestep>
    <timestep time="100.00">
        <vehicle id="0" x="1030.20" y="1099.47" angle="22.57" type="DEFAULT_VEHTYPE" speed="14.37" pos="99.51" lane="b38[1][0]_0" slope="0.00"/>
        <vehicle id="1" x="1130.60" y="212.85" angle="287.37" type="DEFAULT_VEHTYPE" speed="12.82" pos="5.34" lane="a42_0" slope="0.00"/>
        <vehicle id="2" x="1996.87" y="268.07" angle="343.39" type="DEFAULT_VEHTYPE" speed="13.74" pos="187.92" lane="a210_0" slope="0.00"/>
    </timestep>
    <timestep time="101.00">
        <vehicle id="0" x="1035.48" y="1112.17" angle="22.57" type="DEFAULT_VEHTYPE" speed="13.75" pos="113.26" lane="b38[1][0]_0" slope="0.00"/>
        <vehicle id="1" x="1118.61" y="216.60" angle="287.37" type="DEFAULT_VEHTYPE" speed="12.56" pos="17.90" lane="a42_0" slope="0.00"/>
        <vehicle id="2" x="1992.92" y="281.32" angle="343.39" type="DEFAULT_VEHTYPE" speed="13.83" pos="201.75" lane="a210_0" slope="0.00"/>
    </timestep>
    <timestep time="102.00">
        <vehicle id="0" x="1041.11" y="1125.72" angle="22.57" type="DEFAULT_VEHTYPE" speed="14.68" pos="127.94" lane="b38[1][0]_0" slope="0.00"/>
        <vehicle id="1" x="1106.95" y="220.25" angle="287.37" type="DEFAULT_VEHTYPE" speed="12.22" pos="30.13" lane="a42_0" slope="0.00"/>
        <vehicle id="2" x="1988.93" y="294.70" angle="343.39" type="DEFAULT_VEHTYPE" speed="13.96" pos="215.71" lane="a210_0" slope="0.00"/>
    </timestep>
    <timestep time="103.00">
        <vehicle id="0" x="1046.63" y="1139.00" angle="22.57" type="DEFAULT_VEHTYPE" speed="14.37" pos="142.31" lane="b38[1][0]_0" slope="0.00"/>
        <vehicle id="1" x="1094.57" y="224.18" angle="287.99" type="DEFAULT_VEHTYPE" speed="12.99" pos="5.88" lane=":a31_1_0" slope="0.00"/>
        <vehicle id="2" x="1985.63" y="307.12" angle="345.69" type="DEFAULT_VEHTYPE" speed="12.84" pos="228.55" lane="a210_0" slope="0.00"/>
    </timestep>
    <timestep time="104.00">
        <vehicle id="0" x="1052.28" y="1152.58" angle="22.57" type="DEFAULT_VEHTYPE" speed="14.72" pos="157.03" lane="b38[1][0]_0" slope="0.00"/>
        <vehicle id="1" x="1083.39" y="227.90" angle="288.69" type="DEFAULT_VEHTYPE" speed="11.79" pos="6.26" lane="a39_0" slope="0.00"/>
        <vehicle id="2" x="1982.26" y="320.32" angle="345.69" type="DEFAULT_VEHTYPE" speed="13.63" pos="242.17" lane="a210_0" slope="0.00"/>
    </timestep>
    <timestep time="105.00">
        <vehicle id="0" x="1057.50" y="1165.15" angle="22.57" type="DEFAULT_VEHTYPE" speed="13.61" pos="170.64" lane="b38[1][0]_0" slope="0.00"/>
        <vehicle id="1" x="1071.30" y="231.99" angle="288.69" type="DEFAULT_VEHTYPE" speed="12.75" pos="19.02" lane="a39_0" slope="0.00"/>
        <vehicle id="2" x="1979.06" y="332.89" angle="345.69" type="DEFAULT_VEHTYPE" speed="12.97" pos="255.14" lane="a210_0" slope="0.00"/>
    </timestep>
    <timestep time="106.00">
        <vehicle id="0" x="1062.77" y="1177.82" angle="22.57" type="DEFAULT_VEHTYPE" speed="13.72" pos="184.36" lane="b38[1][0]_0" slope="0.00"/>