<?xml version="1.0" encoding="UTF-8"?>

<!-- generated on 2025-03-21 17:57:04 by Eclipse SUMO sumo Version 1.21.0
<sumoConfiguration xmlns:xsi="http://www.w3.org/2001/XMLSchema-instance" xsi:noNamespaceSchemaLocation="http://sumo.dlr.de/xsd/sumoConfiguration.xsd">

    <input>
        <net-file value="${STATICPATH}/joined_lanes.net.xml"/>
        <route-files value="${SIMULATIONPATH}/generatedRoutes.rou.xml"/>
        <additional-files value="${STATICPATH}/detectors.add.xml,${STATICPATH}/joined_vtypes.add.xml,${STATICPATH}/joined_tls.add.xml"/>
    </input>

    <output>
        <fcd-output value="${SIMULATIONPATH}/fcd.xml"/>
        <queue-output value="${SIMULATIONPATH}/queue.xml"/>
        <summary-output value="${SIMULATIONPATH}/summary.xml"/>
        <tripinfo-output value="${SIMULATIONPATH}/tripinfos.xml"/>
        <vehroute-output value="${SIMULATIONPATH}/vehroute.xml"/>
        <save-state.prefix value="configs\state"/>
    </output>

    <processing>
        <ignore-junction-blocker value="1"/>
        <ignore-route-errors value="true"/>
        <time-to-teleport value="-1"/>
    </processing>

    <report>
        <log value="C:/Users/fabio/Desktop/sumo_log.txt"/>
        <no-step-log value="true"/>
    </report>

    <emissions>
        <phemlight-path value="configs\./PHEMlight/"/>
    </emissions>

    <traci_server>
        <remote-port value="60253"/>
    </traci_server>

</sumoConfiguration>
-->

<tripinfos xmlns:xsi="http://www.w3.org/2001/XMLSchema-instance" xsi:noNamespaceSchemaLocation="http://sumo.dlr.de/xsd/tripinfo_file.xsd">
    <tripinfo id="0" depart="2.00" departLane="a67_0" departPos="5.10" departSpeed="0.00" departDelay="0.80" arrival="253.00" arrivalLane="b10_0" arrivalPos="224.30" arrivalSpeed="13.98" duration="251.00" routeLength="2395.76" waitingTime="56.00" waitingCount="3" stopTime="0.00" timeLoss="86.76" rerouteNo="0" devices="vehroute_0 tripinfo_0 fcd_0" vType="DEFAULT_VEHTYPE" speedFactor="1.06" vaporized=""/>
    <tripinfo id="1" depart="64.00" departLane="a195_0" departPos="5.10" departSpeed="0.00" departDelay="0.32" arrival="312.00" arrivalLane="b2[1][1][1]b_0" arrivalPos="325.74" arrivalSpeed="12.41" duration="248.00" routeLength="2441.66" waitingTime="26.00" waitingCount="2" stopTime="0.00" timeLoss="56.88" rerouteNo="0" devices="vehroute_1 tripinfo_1 fcd_1" vType="DEFAULT_VEHTYPE" speedFactor="0.94" vaporized=""/>
    <tripinfo id="2" depart="83.00" departLane="a210_0" departPos="5.10" departSpeed="0.00" departDelay="0.58" arrival="428.00" arrivalLane="b3[1]b_0" arrivalPos="239.77" arrivalSpeed="12.90" duration="345.00" routeLength="3030.71" waitingTime="89.00" waitingCount="4" stopTime="0.00" timeLoss="128.44" rerouteNo="0" devices="vehroute_2 tripinfo_2 fcd_2" vType="DEFAULT_VEHTYPE" speedFactor="1.01" vaporized=""/>
    <tripinfo id="3" depart="228.00" departLane="a212_0" departPos="5.10" departSpeed="0.00" departDelay="0.81" arrival="495.00" arrivalLane="b9_0" arrivalPos="340.87" arrivalSpeed="14.32" duration="267.00" routeLength="2818.92" waitingTime="38.00" waitingCount="2" stopTime="0.00" timeLoss="75.93" rerouteNo="0" devices="vehroute_3 tripinfo_3 fcd_3" vType="DEFAULT_VEHTYPE" speedFactor="1.08" vaporized=""/>
    <tripinfo id="5" depart="288.00" departLane="a67_0" departPos="5.10" departSpeed="0.00" departDelay="0.12" arrival="561.00" arrivalLane="b10_0" arrivalPos="224.30" arrivalSpeed="10.81" duration="273.00" routeLength="2395.76" waitingTime="34.00" waitingCount="2" stopTime="0.00" timeLoss="63.24" rerouteNo="0" devices="vehroute_5 tripinfo_5 fcd_5" vType="DEFAULT_VEHTYPE" speedFactor="0.83" vaporized=""/>
    <tripinfo id="4" depart="269.00" departLane="a16_0" departPos="5.10" departSpeed="0.00" departDelay="0.33" arrival="611.00" arrivalLane="b2[1][1][1]b_0" arrivalPos="325.74" arrivalSpeed="13.55" duration="342.00" routeLength="2436.68" waitingTime="133.00" waitingCount="3" stopTime="0.00" timeLoss="168.64" rerouteNo="0" devices="vehroute_4 tripinfo_4 fcd_4" vType="DEFAULT_VEHTYPE" speedFactor="1.03" vaporized=""/>
    <tripinfo id="6" depart="335.00" departLane="a55_0" departPos="5.10" departSpeed="0.00" departDelay="0.46" arrival="612.00" arrivalLane="b2[1][1][1]b_1" arrivalPos="325.74" arrivalSpeed="13.48" duration="277.00" routeLength="2457.31" waitingTime="75.00" waitingCount="2" stopTime="0.00" timeLoss="106.22" rerouteNo="0" devices="vehroute_6 tripinfo_6 fcd_6" vType="DEFAULT_VEHTYPE" speedFactor="1.05" vaporized=""/>
    <tripinfo id="7" depart="424.00" departLane="a195_0" departPos="5.10" departSpeed="0.00" departDelay="0.46" arrival="673.00" arrivalLane="b2[1][1][1]b_0" arrivalPos="325.74" arrivalSpeed="11.65" duration="249.00" routeLength="2441.66" waitingTime="24.00" waitingCount="1" stopTime="0.00" timeLoss="47.19" rerouteNo="0" devices="vehroute_7 tripinfo_7 fcd_7" vType="DEFAULT_VEHTYPE" speedFactor="0.89" vaporized=""/>
    <tripinfo id="9" depart="440.00" departLane="a55_0" departPos="5.10" departSpeed="0.00" departDelay="0.67" arrival="758.00" arrivalLane="b2[1][1][1]b_0" arrivalPos="325.74" arrivalSpeed="10.61" duration="318.00" routeLength="2457.31" waitingTime="72.00" waitingCount="4" stopTime="0.00" timeLoss="109.21" rerouteNo="0" devices="vehroute_9 tripinfo_9 fcd_9" vType="DEFAULT_VEHTYPE" speedFactor="0.86" vaporized=""/>
    <tripinfo id="13" depart="574.00" departLane="a212_0" departPos="5.10" departSpeed="0.00" departDelay="0.51" arrival="778.00" arrivalLane="b2[1][1][1]b_0" arrivalPos="325.74" arrivalSpeed="14.52" duration="204.00" routeLength="1926.61" waitingTime="50.00" waitingCount="2" stopTime="0.00" timeLoss="78.68" rerouteNo="0" devices="vehroute_13 tripinfo_13 fcd_13" vType="DEFAULT_VEHTYPE" speedFactor="1.12" vaporized=""/>
    <tripinfo id="10" depart="502.00" departLane="a195_0" departPos="5.10" departSpeed="0.00" departDelay="0.89" arrival="781.00" arrivalLane="b2[1][1][1]b_0" arrivalPos="325.74" arrivalSpeed="14.59" duration="279.00" routeLength="2441.66" waitingTime="85.00" waitingCount="2" stopTime="0.00" timeLoss="114.68" rerouteNo="0" devices="vehroute_10 tripinfo_10 fcd_10" vType="DEFAULT_VEHTYPE" speedFactor="1.09" vaporized=""/>
    <tripinfo id="14" depart="583.00" departLane="a195_0" departPos="5.10" departSpeed="0.00" departDelay="0.65" arrival="789.00" arrivalLane="b2[1][1][1]b_0" arrivalPos="325.74" arrivalSpeed="13.42" duration="206.00" routeLength="2441.66" waitingTime="3.00" waitingCount="1" stopTime="0.00" timeLoss="25.95" rerouteNo="0" devices="vehroute_14 tripinfo_14 fcd_14" vType="DEFAULT_VEHTYPE" speedFactor="0.99" vaporized=""/>
    <tripinfo id="8" depart="439.00" departLane="a210_0" departPos="5.10" departSpeed="0.00" departDelay="0.66" arrival="798.00" arrivalLane="b3[1]b_0" arrivalPos="239.77" arrivalSpeed="12.00" duration="359.00" routeLength="3030.71" waitingTime="87.00" waitingCount="5" stopTime="0.00" timeLoss="125.35" rerouteNo="0" devices="vehroute_8 tripinfo_8 fcd_8" vType="DEFAULT_VEHTYPE" speedFactor="0.94" vaporized=""/>
    <tripinfo id="12" depart="554.00" departLane="a212_0" departPos="5.10" departSpeed="0.00" departDelay="0.35" arrival="875.00" arrivalLane="b9_0" arrivalPos="340.87" arrivalSpeed="13.85" duration="321.00" routeLength="2818.92" waitingTime="79.00" waitingCount="4" stopTime="0.00" timeLoss="122.51" rerouteNo="0" devices="vehroute_12 tripinfo_12 fcd_12" vType="DEFAULT_VEHTYPE" speedFactor="1.05" vaporized=""/>
    <tripinfo id="11" depart="509.00" departLane="a55_0" departPos="5.10" departSpeed="0.00" departDelay="0.40" arrival="877.00" arrivalLane="b2[1][1][1]b_0" arrivalPos="325.74" arrivalSpeed="14.10" duration="368.00" routeLength="2457.31" waitingTime="157.00" waitingCount="3" stopTime="0.00" timeLoss="194.08" rerouteNo="0" devices="vehroute_11 tripinfo_11 fcd_11" vType="DEFAULT_VEHTYPE" speedFactor="1.03" vaporized=""/>
    <tripinfo id="15" depart="615.00" departLane="a55_0" departPos="5.10" departSpeed="0.00" departDelay="0.61" arrival="881.00" arrivalLane="b2[1][1][1]b_0" arrivalPos="325.74" arrivalSpeed="11.99" duration="266.00" routeLength="2457.31" waitingTime="46.00" waitingCount="2" stopTime="0.00" timeLoss="72.74" rerouteNo="0" devices="vehroute_15 tripinfo_15 fcd_15" vType="DEFAULT_VEHTYPE" speedFactor="0.93" vaporized=""/>
    <tripinfo id="19" depart="691.00" departLane="a195_0" departPos="5.10" departSpeed="0.00" departDelay="0.58" arrival="900.00" arrivalLane="b2[1][1][1]b_0" arrivalPos="325.74" arrivalSpeed="15.75" duration="209.00" routeLength="2435.23" waitingTime="27.00" waitingCount="1" stopTime="0.00" timeLoss="54.09" rerouteNo="0" devices="vehroute_19 tripinfo_19 fcd_19" vType="DEFAULT_VEHTYPE" speedFactor="1.16" vaporized=""/>
    <tripinfo id="21" depart="764.00" departLane="a78[0]_0" departPos="5.10" departSpeed="0.00" departDelay="0.86" arrival="911.00" arrivalLane="b2[1][1][1]b_0" arrivalPos="325.74" arrivalSpeed="13.09" duration="147.00" routeLength="1757.08" waitingTime="3.00" waitingCount="1" stopTime="0.00" timeLoss="20.06" rerouteNo="0" devices="vehroute_21 tripinfo_21 fcd_21" vType="DEFAULT_VEHTYPE" speedFactor="1.01" vaporized=""/>
    <tripinfo id="16" depart="626.00" departLane="a195_0" departPos="5.10" departSpeed="0.00" departDelay="0.49" arrival="920.00" arrivalLane="b2[1][1][1]b_0" arrivalPos="325.74" arrivalSpeed="11.13" duration="294.00" routeLength="2441.66" waitingTime="62.00" waitingCount="2" stopTime="0.00" timeLoss="90.45" rerouteNo="0" devices="vehroute_16 tripinfo_16 fcd_16" vType="DEFAULT_VEHTYPE" speedFactor="0.88" vaporized=""/>
    <tripinfo id="23" depart="806.00" departLane="b2[1][0]_0" departPos="5.10" departSpeed="0.00" departDelay="0.99" arrival="965.00" arrivalLane="b10_0" arrivalPos="224.30" arrivalSpeed="11.84" duration="159.00" routeLength="1540.62" waitingTime="13.00" waitingCount="1" stopTime="0.00" timeLoss="32.97" rerouteNo="0" devices="vehroute_23 tripinfo_23 fcd_23" vType="DEFAULT_VEHTYPE" speedFactor="0.89" vaporized=""/>
    <tripinfo id="20" depart="763.00" departLane="a55_0" departPos="5.10" departSpeed="0.00" departDelay="0.68" arrival="1002.00" arrivalLane="b2[1][1][1]b_0" arrivalPos="325.74" arrivalSpeed="13.03" duration="239.00" routeLength="2457.31" waitingTime="33.00" waitingCount="3" stopTime="0.00" timeLoss="63.58" rerouteNo="0" devices="vehroute_20 tripinfo_20 fcd_20" vType="DEFAULT_VEHTYPE" speedFactor="1.02" vaporized=""/>
    <tripinfo id="18" depart="640.00" departLane="a55_0" departPos="5.10" departSpeed="0.00" departDelay="0.04" arrival="1005.00" arrivalLane="b2[1][1][1]b_0" arrivalPos="325.74" arrivalSpeed="12.03" duration="365.00" routeLength="2457.31" waitingTime="140.00" waitingCount="4" stopTime="0.00" timeLoss="174.43" rerouteNo="0" devices="vehroute_18 tripinfo_18 fcd_18" vType="DEFAULT_VEHTYPE" speedFactor="0.94" vaporized=""/>
    <tripinfo id="17" depart="637.00" departLane="a212_0" departPos="5.10" departSpeed="0.00" departDelay="0.21" arrival="1016.00" arrivalLane="b9_0" arrivalPos="340.87" arrivalSpeed="12.26" duration="379.00" routeLength="2818.92" waitingTime="111.00" waitingCount="5" stopTime="0.00" timeLoss="158.41" rerouteNo="0" devices="vehroute_17 tripinfo_17 fcd_17" vType="DEFAULT_VEHTYPE" speedFactor="0.94" vaporized=""/>
    <tripinfo id="22" depart="795.00" departLane="a195_0" departPos="5.10" departSpeed="0.00" departDelay="0.11" arrival="1034.00" arrivalLane="b2[1][1][1]b_0" arrivalPos="325.74" arrivalSpeed="12.90" duration="239.00" routeLength="2435.23" waitingTime="33.00" waitingCount="1" stopTime="0.00" timeLoss="55.42" rerouteNo="0" devices="vehroute_22 tripinfo_22 fcd_22" vType="DEFAULT_VEHTYPE" speedFactor="0.97" vaporized=""/>
    <tripinfo id="25" depart="825.00" departLane="a78[0]_0" departPos="5.10" departSpeed="0.00" departDelay="0.98" arrival="1044.00" arrivalLane="b2[1][1][1]b_0" arrivalPos="325.74" arrivalSpeed="12.12" duration="219.00" routeLength="1757.08" waitingTime="54.00" waitingCount="1" stopTime="0.00" timeLoss="72.43" rerouteNo="0" devices="vehroute_25 tripinfo_25 fcd_25" vType="DEFAULT_VEHTYPE" speedFactor="0.87" vaporized=""/>
    <tripinfo id="28" depart="861.00" departLane="a43[1]_0" departPos="5.10" departSpeed="0.00" departDelay="0.40" arrival="1065.00" arrivalLane="b10_0" arrivalPos="224.30" arrivalSpeed="15.24" duration="204.00" routeLength="2419.66" waitingTime="32.00" waitingCount="1" stopTime="0.00" timeLoss="49.51" rerouteNo="0" devices="vehroute_28 tripinfo_28 fcd_28" vType="DEFAULT_VEHTYPE" speedFactor="1.13" vaporized=""/>
    <tripinfo id="27" depart="841.00" departLane="a43[1]_0" departPos="5.10" departSpeed="0.00" departDelay="3.48" arrival="1075.00" arrivalLane="b10_0" arrivalPos="224.30" arrivalSpeed="11.88" duration="234.00" routeLength="2419.66" waitingTime="27.00" waitingCount="2" stopTime="0.00" timeLoss="50.12" rerouteNo="0" devices="vehroute_27 tripinfo_27 fcd_27" vType="DEFAULT_VEHTYPE" speedFactor="0.95" vaporized=""/>
    <tripinfo id="26" depart="838.00" departLane="a43[1]_0" departPos="5.10" departSpeed="0.00" departDelay="0.82" arrival="1080.00" arrivalLane="b10_0" arrivalPos="224.30" arrivalSpeed="12.68" duration="242.00" routeLength="2416.70" waitingTime="24.00" waitingCount="2" stopTime="0.00" timeLoss="51.28" rerouteNo="0" devices="vehroute_26 tripinfo_26 fcd_26" vType="DEFAULT_VEHTYPE" speedFactor="0.92" vaporized=""/>
    <tripinfo id="32" depart="1007.00" departLane="b2[1][0]_0" departPos="5.10" departSpeed="0.00" departDelay="0.07" arrival="1129.00" arrivalLane="b10_0" arrivalPos="224.30" arrivalSpeed="13.48" duration="122.00" routeLength="1540.62" waitingTime="0.00" waitingCount="0" stopTime="0.00" timeLoss="10.22" rerouteNo="0" devices="vehroute_32 tripinfo_32 fcd_32" vType="DEFAULT_VEHTYPE" speedFactor="1.01" vaporized=""/>
    <tripinfo id="24" depart="819.00" departLane="a55_0" departPos="5.10" departSpeed="0.00" departDelay="0.51" arrival="1134.00" arrivalLane="b2[1][1][1]b_0" arrivalPos="325.74" arrivalSpeed="10.72" duration="315.00" routeLength="2457.31" waitingTime="65.00" waitingCount="3" stopTime="0.00" timeLoss="98.44" rerouteNo="0" devices="vehroute_24 tripinfo_24 fcd_24" vType="DEFAULT_VEHTYPE" speedFactor="0.83" vaporized=""/>
    <tripinfo id="30" depart="956.00" departLane="a195_0" departPos="5.10" departSpeed="0.00" departDelay="0.61" arrival="1145.00" arrivalLane="b2[1][1][1]b_0" arrivalPos="325.74" arrivalSpeed="15.84" duration="189.00" routeLength="2435.23" waitingTime="11.00" waitingCount="1" stopTime="0.00" timeLoss="37.31" rerouteNo="0" devices="vehroute_30 tripinfo_30 fcd_30" vType="DEFAULT_VEHTYPE" speedFactor="1.18" vaporized=""/>
    <tripinfo id="29" depart="926.00" departLane="a195_0" departPos="5.10" departSpeed="0.00" departDelay="0.63" arrival="1161.00" arrivalLane="b2[1][1][1]b_0" arrivalPos="325.74" arrivalSpeed="12.52" duration="235.00" routeLength="2441.66" waitingTime="21.00" waitingCount="1" stopTime="0.00" timeLoss="42.66" rerouteNo="0" devices="vehroute_29 tripinfo_29 fcd_29" vType="DEFAULT_VEHTYPE" speedFactor="0.93" vaporized=""/>
    <tripinfo id="31" depart="1000.00" departLane="a55_0" departPos="5.10" departSpeed="0.00" departDelay="0.09" arrival="1250.00" arrivalLane="b2[1][1][1]b_0" arrivalPos="325.74" arrivalSpeed="15.41" duration="250.00" routeLength="2457.31" waitingTime="61.00" waitingCount="3" stopTime="0.00" timeLoss="95.66" rerouteNo="0" devices="vehroute_31 tripinfo_31 fcd_31" vType="DEFAULT_VEHTYPE" speedFactor="1.15" vaporized=""/>
    <tripinfo id="33" depart="1071.00" departLane="a195_0" departPos="5.10" departSpeed="0.00" departDelay="0.52" arrival="1268.00" arrivalLane="b2[1][1][1]b_0" arrivalPos="325.74" arrivalSpeed="15.81" duration="197.00" routeLength="2441.66" waitingTime="20.00" waitingCount="1" stopTime="0.00" timeLoss="44.90" rerouteNo="0" devices="vehroute_33 tripinfo_33 fcd_33" vType="DEFAULT_VEHTYPE" speedFactor="1.17" vaporized=""/>
    <tripinfo id="36" depart="1162.00" departLane="a55_0" departPos="5.10" departSpeed="0.00" departDelay="0.90" arrival="1385.00" arrivalLane="b2[1][1][1]b_0" arrivalPos="325.74" arrivalSpeed="12.78" duration="223.00" routeLength="2457.31" waitingTime="10.00" waitingCount="2" stopTime="0.00" timeLoss="39.05" rerouteNo="0" devices="vehroute_36 tripinfo_36 fcd_36" vType="DEFAULT_VEHTYPE" speedFactor="0.97" vaporized=""/>
    <tripinfo id="37" depart="1231.00" departLane="a195_0" departPos="5.10" departSpeed="0.00" departDelay="0.97" arrival="1402.00" arrivalLane="b2[1][1][1]b_0" arrivalPos="325.74" arrivalSpeed="15.28" duration="171.00" routeLength="2441.66" waitingTime="0.00" waitingCount="0" stopTime="0.00" timeLoss="19.02" rerouteNo="0" devices="vehroute_37 tripinfo_37 fcd_37" vType="DEFAULT_VEHTYPE" speedFactor="1.18" vaporized=""/>
    <tripinfo id="35" depart="1144.00" departLane="a203[0]_0" departPos="5.10" departSpeed="0.00" departDelay="0.89" arrival="1419.00" arrivalLane="b11[0]_0" arrivalPos="90.93" arrivalSpeed="13.84" duration="275.00" routeLength="2542.99" waitingTime="58.00" waitingCount="4" stopTime="0.00" timeLoss="92.15" rerouteNo="0" devices="vehroute_35 tripinfo_35 fcd_35" vType="DEFAULT_VEHTYPE" speedFactor="1.02" vaporized=""/>
    <tripinfo id="38" depart="1247.00" departLane="a55_0" departPos="5.10" departSpeed="0.00" departDelay="0.24" arrival="1465.00" arrivalLane="b2[1][1][1]b_0" arrivalPos="325.74" arrivalSpeed="15.31" duration="218.00" routeLength="2457.31" waitingTime="21.00" waitingCount="2" stopTime="0.00" timeLoss="56.07" rerouteNo="0" devices="vehroute_38 tripinfo_38 fcd_38" vType="DEFAULT_VEHTYPE" speedFactor="1.10" vaporized=""/>
    <tripinfo id="34" depart="1130.00" departLane="a43[1]_0" departPos="5.10" departSpeed="0.00" departDelay="0.58" arrival="1466.00" arrivalLane="b10_0" arrivalPos="224.30" arrivalSpeed="13.69" duration="336.00" routeLength="2419.66" waitingTime="129.00" waitingCount="4" stopTime="0.00" timeLoss="160.09" rerouteNo="0" devices="vehroute_34 tripinfo_34 fcd_34" vType="DEFAULT_VEHTYPE" speedFactor="0.99" vaporized=""/>
    <tripinfo id="40" depart="1314.00" departLane="a195_0" departPos="5.10" departSpeed="0.00" departDelay="0.73" arrival="1534.00" arrivalLane="b2[1][1][1]b_0" arrivalPos="325.74" arrivalSpeed="13.02" duration="220.00" routeLength="2435.23" waitingTime="14.00" waitingCount="3" stopTime="0.00" timeLoss="46.84" rerouteNo="0" devices="vehroute_40 tripinfo_40 fcd_40" vType="DEFAULT_VEHTYPE" speedFactor="1.03" vaporized=""/>
    <tripinfo id="39" depart="1276.00" departLane="a78[0]_0" departPos="5.10" departSpeed="0.00" departDelay="0.75" arrival="1538.00" arrivalLane="b2[1][1][1]b_0" arrivalPos="325.74" arrivalSpeed="11.72" duration="262.00" routeLength="1757.08" waitingTime="97.00" waitingCount="1" stopTime="0.00" timeLoss="119.87" rerouteNo="0" devices="vehroute_39 tripinfo_39 fcd_39" vType="DEFAULT_VEHTYPE" speedFactor="0.90" vaporized=""/>
    <tripinfo id="42" depart="1392.00" departLane="a43[1]_0" departPos="5.10" departSpeed="0.00" departDelay="0.74" arrival="1614.00" arrivalLane="b10_0" arrivalPos="224.30" arrivalSpeed="14.10" duration="222.00" routeLength="2419.66" waitingTime="36.00" waitingCount="2" stopTime="0.00" timeLoss="62.26" rerouteNo="0" devices="vehroute_42 tripinfo_42 fcd_42" vType="DEFAULT_VEHTYPE" speedFactor="1.09" vaporized=""/>
    <tripinfo id="41" depart="1372.00" departLane="a43[1]_0" departPos="5.10" departSpeed="0.00" departDelay="0.73" arrival="1629.00" arrivalLane="b10_0" arrivalPos="224.30" arrivalSpeed="12.30" duration="257.00" routeLength="2419.66" waitingTime="48.00" waitingCount="2" stopTime="0.00" timeLoss="74.12" rerouteNo="0" devices="vehroute_41 tripinfo_41 fcd_41" vType="DEFAULT_VEHTYPE" speedFactor="0.96" vaporized=""/>
    <tripinfo id="44" depart="1408.00" departLane="a212_0" departPos="5.10" departSpeed="0.00" departDelay="0.25" arrival="1658.00" arrivalLane="b2[1][1][1]b_0" arrivalPos="325.74" arrivalSpeed="13.57" duration="250.00" routeLength="1933.04" waitingTime="85.00" waitingCount="2" stopTime="0.00" timeLoss="115.23" rerouteNo="0" devices="vehroute_44 tripinfo_44 fcd_44" vType="DEFAULT_VEHTYPE" speedFactor="1.04" vaporized=""/>
    <tripinfo id="43" depart="1394.00" departLane="a195_0" departPos="5.10" departSpeed="0.00" departDelay="0.52" arrival="1660.00" arrivalLane="b2[1][1][1]b_0" arrivalPos="325.74" arrivalSpeed="14.10" duration="266.00" routeLength="2435.23" waitingTime="60.00" waitingCount="3" stopTime="0.00" timeLoss="93.72" rerouteNo="0" devices="vehroute_43 tripinfo_43 fcd_43" vType="DEFAULT_VEHTYPE" speedFactor="1.04" vaporized=""/>
    <tripinfo id="45" depart="1430.00" departLane="a212_0" departPos="5.10" departSpeed="0.00" departDelay="0.16" arrival="1671.00" arrivalLane="b53a_0" arrivalPos="257.19" arrivalSpeed="14.54" duration="241.00" routeLength="2151.42" waitingTime="65.00" waitingCount="2" stopTime="0.00" timeLoss="95.34" rerouteNo="0" devices="vehroute_45 tripinfo_45 fcd_45" vType="DEFAULT_VEHTYPE" speedFactor="1.09" vaporized=""/>
    <tripinfo id="46" depart="1458.00" departLane="a43[1]_0" departPos="5.10" departSpeed="0.00" departDelay="0.73" arrival="1750.00" arrivalLane="b10_0" arrivalPos="224.30" arrivalSpeed="13.05" duration="292.00" routeLength="2419.66" waitingTime="83.00" waitingCount="3" stopTime="0.00" timeLoss="117.05" rerouteNo="0" devices="vehroute_46 tripinfo_46 fcd_46" vType="DEFAULT_VEHTYPE" speedFactor="1.00" vaporized=""/>
    <tripinfo id="47" depart="1550.00" departLane="a212_0" departPos="5.10" departSpeed="0.00" departDelay="0.79" arrival="1876.00" arrivalLane="b9_0" arrivalPos="340.87" arrivalSpeed="11.30" duration="326.00" routeLength="2818.92" waitingTime="59.00" waitingCount="3" stopTime="0.00" timeLoss="96.22" rerouteNo="0" devices="vehroute_47 tripinfo_47 fcd_47" vType="DEFAULT_VEHTYPE" speedFactor="0.90" vaporized=""/>
    <tripinfo id="53" depart="1822.00" departLane="a212_0" departPos="5.10" departSpeed="0.00" departDelay="0.01" arrival="2011.00" arrivalLane="b2[1][1][1]b_0" arrivalPos="325.74" arrivalSpeed="14.15" duration="189.00" routeLength="1926.61" waitingTime="40.00" waitingCount="1" stopTime="0.00" timeLoss="59.12" rerouteNo="0" devices="vehroute_53 tripinfo_53 fcd_53" vType="DEFAULT_VEHTYPE" speedFactor="1.10" vaporized=""/>
    <tripinfo id="52" depart="1805.00" departLane="a195_0" departPos="5.10" departSpeed="0.00" departDelay="0.85" arrival="2019.00" arrivalLane="b2[1][1][1]b_0" arrivalPos="325.74" arrivalSpeed="13.37" duration="214.00" routeLength="2441.66" waitingTime="10.00" waitingCount="2" stopTime="0.00" timeLoss="37.85" rerouteNo="0" devices="vehroute_52 tripinfo_52 fcd_52" vType="DEFAULT_VEHTYPE" speedFactor="1.02" vaporized=""/>
    <tripinfo id="54" depart="1825.00" departLane="a195_0" departPos="5.10" departSpeed="0.00" departDelay="0.38" arrival="2023.00" arrivalLane="b2[1][1][1]b_0" arrivalPos="325.74" arrivalSpeed="12.82" duration="198.00" routeLength="2441.66" waitingTime="0.00" waitingCount="0" stopTime="0.00" timeLoss="19.82" rerouteNo="0" devices="vehroute_54 tripinfo_54 fcd_54" vType="DEFAULT_VEHTYPE" speedFactor="1.00" vaporized=""/>
    <tripinfo id="50" depart="1734.00" departLane="a195_0" departPos="5.10" departSpeed="0.00" departDelay="0.11" arrival="2030.00" arrivalLane="b2[1][1][1]b_0" arrivalPos="325.74" arrivalSpeed="11.42" duration="296.00" routeLength="2441.66" waitingTime="60.00" waitingCount="1" stopTime="0.00" timeLoss="86.55" rerouteNo="0" devices="vehroute_50 tripinfo_50 fcd_50" vType="DEFAULT_VEHTYPE" speedFactor="0.85" vaporized=""/>
    <tripinfo id="51" depart="1745.00" departLane="a43[1]_0" departPos="5.10" departSpeed="0.00" departDelay="0.43" arrival="2085.00" arrivalLane="b10_0" arrivalPos="224.30" arrivalSpeed="15.25" duration="340.00" routeLength="2416.70" waitingTime="147.00" waitingCount="4" stopTime="0.00" timeLoss="190.15" rerouteNo="0" devices="vehroute_51 tripinfo_51 fcd_51" vType="DEFAULT_VEHTYPE" speedFactor="1.17" vaporized=""/>
    <tripinfo id="49" depart="1726.00" departLane="a43[1]_0" departPos="5.10" departSpeed="0.00" departDelay="0.32" arrival="2092.00" arrivalLane="b10_0" arrivalPos="224.30" arrivalSpeed="11.78" duration="366.00" routeLength="2419.66" waitingTime="122.00" waitingCount="4" stopTime="0.00" timeLoss="160.17" rerouteNo="0" devices="vehroute_49 tripinfo_49 fcd_49" vType="DEFAULT_VEHTYPE" speedFactor="0.85" vaporized=""/>
    <tripinfo id="55" depart="1836.00" departLane="a55_0" departPos="5.10" departSpeed="0.00" departDelay="0.99" arrival="2099.00" arrivalLane="b2[1][1][1]b_0" arrivalPos="325.74" arrivalSpeed="13.15" duration="263.00" routeLength="2457.31" waitingTime="49.00" waitingCount="3" stopTime="0.00" timeLoss="83.85" rerouteNo="0" devices="vehroute_55 tripinfo_55 fcd_55" vType="DEFAULT_VEHTYPE" speedFactor="1.00" vaporized=""/>
    <tripinfo id="48" depart="1722.00" departLane="a210_0" departPos="5.10" departSpeed="0.00" departDelay="0.36" arrival="2106.00" arrivalLane="b3[1]b_0" arrivalPos="239.77" arrivalSpeed="11.53" duration="384.00" routeLength="3030.71" waitingTime="106.00" waitingCount="3" stopTime="0.00" timeLoss="134.24" rerouteNo="0" devices="vehroute_48 tripinfo_48 fcd_48" vType="DEFAULT_VEHTYPE" speedFactor="0.88" vaporized=""/>
    <tripinfo id="57" depart="1917.00" departLane="a195_0" departPos="5.10" departSpeed="0.00" departDelay="0.07" arrival="2131.00" arrivalLane="b2[1][1][1]b_0" arrivalPos="325.74" arrivalSpeed="14.83" duration="214.00" routeLength="2435.23" waitingTime="30.00" waitingCount="2" stopTime="0.00" timeLoss="56.85" rerouteNo="0" devices="vehroute_57 tripinfo_57 fcd_57" vType="DEFAULT_VEHTYPE" speedFactor="1.14" vaporized=""/>
    <tripinfo id="58" depart="1944.00" departLane="a195_0" departPos="5.10" departSpeed="0.00" departDelay="0.96" arrival="2140.00" arrivalLane="b2[1][1][1]b_0" arrivalPos="325.74" arrivalSpeed="13.46" duration="196.00" routeLength="2441.66" waitingTime="0.00" waitingCount="0" stopTime="0.00" timeLoss="20.86" rerouteNo="0" devices="vehroute_58 tripinfo_58 fcd_58" vType="DEFAULT_VEHTYPE" speedFactor="1.02" vaporized=""/>
    <tripinfo id="56" depart="1892.00" departLane="a212_0" departPos="5.10" departSpeed="0.00" departDelay="0.18" arrival="2148.00" arrivalLane="b2[1][1][1]b_0" arrivalPos="325.74" arrivalSpeed="12.32" duration="256.00" routeLength="1933.04" waitingTime="74.00" waitingCount="1" stopTime="0.00" timeLoss="98.20" rerouteNo="0" devices="vehroute_56 tripinfo_56 fcd_56" vType="DEFAULT_VEHTYPE" speedFactor="0.90" vaporized=""/>
    <tripinfo id="61" depart="2063.00" departLane="a195_0" departPos="5.10" departSpeed="0.00" departDelay="0.05" arrival="2255.00" arrivalLane="b2[1][1][1]b_0" arrivalPos="325.74" arrivalSpeed="15.38" duration="192.00" routeLength="2441.66" waitingTime="5.00" waitingCount="1" stopTime="0.00" timeLoss="32.22" rerouteNo="0" devices="vehroute_61 tripinfo_61 fcd_61" vType="DEFAULT_VEHTYPE" speedFactor="1.12" vaporized=""/>
    <tripinfo id="63" depart="2071.00" departLane="a203[0]_0" departPos="5.10" departSpeed="0.00" departDelay="0.41" arrival="2322.00" arrivalLane="b11[0]_0" arrivalPos="90.93" arrivalSpeed="12.51" duration="251.00" routeLength="2542.99" waitingTime="30.00" waitingCount="3" stopTime="0.00" timeLoss="62.10" rerouteNo="0" devices="vehroute_63 tripinfo_63 fcd_63" vType="DEFAULT_VEHTYPE" speedFactor="0.99" vaporized=""/>
    <tripinfo id="60" depart="2040.00" departLane="a67_0" departPos="5.10" departSpeed="0.00" departDelay="0.33" arrival="2329.00" arrivalLane="b10_0" arrivalPos="224.30" arrivalSpeed="14.43" duration="289.00" routeLength="2395.76" waitingTime="99.00" waitingCount="2" stopTime="0.00" timeLoss="127.86" rerouteNo="0" devices="vehroute_60 tripinfo_60 fcd_60" vType="DEFAULT_VEHTYPE" speedFactor="1.08" vaporized=""/>
    <tripinfo id="59" depart="2032.00" departLane="a43[1]_0" departPos="5.10" departSpeed="0.00" departDelay="0.01" arrival="2335.00" arrivalLane="b10_0" arrivalPos="224.30" arrivalSpeed="12.82" duration="303.00" routeLength="2419.66" waitingTime="93.00" waitingCount="3" stopTime="0.00" timeLoss="122.41" rerouteNo="0" devices="vehroute_59 tripinfo_59 fcd_59" vType="DEFAULT_VEHTYPE" speedFactor="0.97" vaporized=""/>
    <tripinfo id="62" depart="2069.00" departLane="a43[1]_0" departPos="5.10" departSpeed="0.00" departDelay="0.49" arrival="2336.00" arrivalLane="b10_0" arrivalPos="224.30" arrivalSpeed="13.46" duration="267.00" routeLength="2416.70" waitingTime="52.00" waitingCount="4" stopTime="0.00" timeLoss="95.56" rerouteNo="0" devices="vehroute_62 tripinfo_62 fcd_62" vType="DEFAULT_VEHTYPE" speedFactor="1.02" vaporized=""/>
    <tripinfo id="69" depart="2231.00" departLane="a78[0]_0" departPos="5.10" departSpeed="0.00" departDelay="0.81" arrival="2396.00" arrivalLane="b2[1][1][1]b_0" arrivalPos="325.74" arrivalSpeed="13.01" duration="165.00" routeLength="1750.65" waitingTime="16.00" waitingCount="2" stopTime="0.00" timeLoss="39.76" rerouteNo="0" devices="vehroute_69 tripinfo_69 fcd_69" vType="DEFAULT_VEHTYPE" speedFactor="1.02" vaporized=""/>
    <tripinfo id="64" depart="2140.00" departLane="a195_0" departPos="5.10" departSpeed="0.00" departDelay="0.55" arrival="2399.00" arrivalLane="b2[1][1][1]b_0" arrivalPos="325.74" arrivalSpeed="12.84" duration="259.00" routeLength="2441.66" waitingTime="35.00" waitingCount="2" stopTime="0.00" timeLoss="67.97" rerouteNo="0" devices="vehroute_64 tripinfo_64 fcd_64" vType="DEFAULT_VEHTYPE" speedFactor="0.94" vaporized=""/>
    <tripinfo id="68" depart="2225.00" departLane="a55_0" departPos="5.10" departSpeed="0.00" departDelay="0.01" arrival="2454.00" arrivalLane="b2[1][1][1]b_0" arrivalPos="325.74" arrivalSpeed="13.77" duration="229.00" routeLength="2457.31" waitingTime="30.00" waitingCount="2" stopTime="0.00" timeLoss="56.96" rerouteNo="0" devices="vehroute_68 tripinfo_68 fcd_68" vType="DEFAULT_VEHTYPE" speedFactor="1.04" vaporized=""/>