<?xml version="1.0" encoding="UTF-8"?>

<!-- generated on 2025-03-21 17:50:40 by Eclipse SUMO sumo Version 1.21.0
<sumoConfiguration xmlns:xsi="http://www.w3.org/2001/XMLSchema-instance" xsi:noNamespaceSchemaLocation="http://sumo.dlr.de/xsd/sumoConfiguration.xsd">

    <input>
        <net-file value="${STATICPATH}/joined_lanes.net.xml"/>
        <route-files value="${SIMULATIONPATH}/generatedRoutes.rou.xml"/>
        <additional-files value="${STATICPATH}/detectors.add.xml,${STATICPATH}/joined_vtypes.add.xml,${STATICPATH}/joined_tls.add.xml"/>
    </input>

    <output>
        <fcd-output value="${SIMULATIONPATH}/fcd.xml"/>
        <queue-output value="${SIMULATIONPATH}/queue.xml"/>
        <summary-output value="${SIMULATIONPATH}/summary.xml"/>
        <tripinfo-output value="${SIMULATIONPATH}/tripinfos.xml"/>
        <vehroute-output value="${SIMULATIONPATH}/vehroute.xml"/>
        <save-state.prefix value="configs\state"/>
    </output>

    <processing>
        <ignore-junction-blocker value="1"/>
        <ignore-route-errors value="true"/>
        <time-to-teleport value="-1"/>
    </processing>

    <report>
        <log value="C:/Users/fabio/Desktop/sumo_log.txt"/>
        <no-step-log value="true"/>
    </report>

    <emissions>
        <phemlight-path value="configs\./PHEMlight/"/>
    </emissions>

    <traci_server>
        <remote-port value="60213"/>
    </traci_server>

</sumoConfiguration>
-->

<tripinfos xmlns:xsi="http://www.w3.org/2001/XMLSchema-instance" xsi:noNamespaceSchemaLocation="http://sumo.dlr.de/xsd/tripinfo_file.xsd">
    <tripinfo id="0" depart="2.00" departLane="a69_0" departPos="5.10" departSpeed="0.00" departDelay="0.80" arrival="255.00" arrivalLane="b2[1][1][1]b_0" arrivalPos="325.74" arrivalSpeed="14.21" duration="253.00" routeLength="3028.30" waitingTime="18.00" waitingCount="2" stopTime="0.00" timeLoss="45.07" rerouteNo="0" devices="vehroute_0 tripinfo_0 fcd_0" vType="DEFAULT_VEHTYPE" speedFactor="1.06" vaporized=""/>
    <tripinfo id="2" depart="83.00" departLane="a69_0" departPos="5.10" departSpeed="0.00" departDelay="0.58" arrival="367.00" arrivalLane="b2[1][1][1]b_0" arrivalPos="325.74" arrivalSpeed="13.07" duration="284.00" routeLength="3028.30" waitingTime="34.00" waitingCount="2" stopTime="0.00" timeLoss="65.06" rerouteNo="0" devices="vehroute_2 tripinfo_2 fcd_2" vType="DEFAULT_VEHTYPE" speedFactor="1.01" vaporized=""/>
    <tripinfo id="1" depart="64.00" departLane="a36_0" departPos="5.10" departSpeed="0.00" departDelay="0.32" arrival="488.00" arrivalLane="b10_0" arrivalPos="224.30" arrivalSpeed="11.81" duration="424.00" routeLength="2939.16" waitingTime="136.00" waitingCount="7" stopTime="0.00" timeLoss="193.73" rerouteNo="0" devices="vehroute_1 tripinfo_1 fcd_1" vType="DEFAULT_VEHTYPE" speedFactor="0.94" vaporized=""/>
    <tripinfo id="3" depart="228.00" departLane="a36_0" departPos="5.10" departSpeed="0.00" departDelay="0.81" arrival="613.00" arrivalLane="b10_0" arrivalPos="224.30" arrivalSpeed="14.95" duration="385.00" routeLength="2939.16" waitingTime="127.00" waitingCount="6" stopTime="0.00" timeLoss="186.29" rerouteNo="0" devices="vehroute_3 tripinfo_3 fcd_3" vType="DEFAULT_VEHTYPE" speedFactor="1.08" vaporized=""/>
    <tripinfo id="5" depart="288.00" departLane="a69_0" departPos="5.10" departSpeed="0.00" departDelay="0.12" arrival="637.00" arrivalLane="b2[1][1][1]b_0" arrivalPos="325.74" arrivalSpeed="11.16" duration="349.00" routeLength="3023.81" waitingTime="46.00" waitingCount="3" stopTime="0.00" timeLoss="84.05" rerouteNo="0" devices="vehroute_5 tripinfo_5 fcd_5" vType="DEFAULT_VEHTYPE" speedFactor="0.83" vaporized=""/>
    <tripinfo id="4" depart="269.00" departLane="a36_0" departPos="5.10" departSpeed="0.00" departDelay="0.33" arrival="740.00" arrivalLane="b10_0" arrivalPos="224.30" arrivalSpeed="13.73" duration="471.00" routeLength="2939.16" waitingTime="200.00" waitingCount="7" stopTime="0.00" timeLoss="261.57" rerouteNo="0" devices="vehroute_4 tripinfo_4 fcd_4" vType="DEFAULT_VEHTYPE" speedFactor="1.03" vaporized=""/>
    <tripinfo id="6" depart="335.00" departLane="a36_0" departPos="5.10" departSpeed="0.00" departDelay="0.46" arrival="742.00" arrivalLane="b10_0" arrivalPos="224.30" arrivalSpeed="13.75" duration="407.00" routeLength="2939.16" waitingTime="138.00" waitingCount="5" stopTime="0.00" timeLoss="200.17" rerouteNo="0" devices="vehroute_6 tripinfo_6 fcd_6" vType="DEFAULT_VEHTYPE" speedFactor="1.05" vaporized=""/>
    <tripinfo id="8" depart="439.00" departLane="a69_0" departPos="5.10" departSpeed="0.00" departDelay="0.66" arrival="758.00" arrivalLane="b2[1][1][1]b_0" arrivalPos="325.74" arrivalSpeed="12.83" duration="319.00" routeLength="3028.30" waitingTime="47.00" waitingCount="3" stopTime="0.00" timeLoss="83.51" rerouteNo="0" devices="vehroute_8 tripinfo_8 fcd_8" vType="DEFAULT_VEHTYPE" speedFactor="0.94" vaporized=""/>
    <tripinfo id="7" depart="424.00" departLane="a69_0" departPos="5.10" departSpeed="0.00" departDelay="0.46" arrival="759.00" arrivalLane="b2[1][1][1]b_1" arrivalPos="325.74" arrivalSpeed="11.59" duration="335.00" routeLength="3020.85" waitingTime="40.00" waitingCount="4" stopTime="0.00" timeLoss="86.65" rerouteNo="0" devices="vehroute_7 tripinfo_7 fcd_7" vType="DEFAULT_VEHTYPE" speedFactor="0.89" vaporized=""/>
    <tripinfo id="9" depart="442.00" departLane="a69_0" departPos="5.10" departSpeed="0.00" departDelay="2.67" arrival="763.00" arrivalLane="b2[1][1][1]b_0" arrivalPos="325.74" arrivalSpeed="11.08" duration="321.00" routeLength="3023.81" waitingTime="23.00" waitingCount="3" stopTime="0.00" timeLoss="63.71" rerouteNo="0" devices="vehroute_9 tripinfo_9 fcd_9" vType="DEFAULT_VEHTYPE" speedFactor="0.86" vaporized=""/>
    <tripinfo id="10" depart="502.00" departLane="a69_0" departPos="5.10" departSpeed="0.00" departDelay="0.89" arrival="879.00" arrivalLane="b2[1][1][1]b_0" arrivalPos="325.74" arrivalSpeed="14.82" duration="377.00" routeLength="3020.85" waitingTime="125.00" waitingCount="4" stopTime="0.00" timeLoss="175.10" rerouteNo="0" devices="vehroute_10 tripinfo_10 fcd_10" vType="DEFAULT_VEHTYPE" speedFactor="1.09" vaporized=""/>
    <tripinfo id="13" depart="574.00" departLane="a69_0" departPos="5.10" departSpeed="0.00" departDelay="0.51" arrival="879.00" arrivalLane="b2[1][1][1]b_2" arrivalPos="325.74" arrivalSpeed="14.54" duration="305.00" routeLength="3020.85" waitingTime="53.00" waitingCount="5" stopTime="0.00" timeLoss="108.44" rerouteNo="0" devices="vehroute_13 tripinfo_13 fcd_13" vType="DEFAULT_VEHTYPE" speedFactor="1.12" vaporized=""/>
    <tripinfo id="12" depart="554.00" departLane="a69_0" departPos="5.10" departSpeed="0.00" departDelay="0.35" arrival="880.00" arrivalLane="b2[1][1][1]b_0" arrivalPos="325.74" arrivalSpeed="13.40" duration="326.00" routeLength="3025.34" waitingTime="65.00" waitingCount="6" stopTime="0.00" timeLoss="116.10" rerouteNo="0" devices="vehroute_12 tripinfo_12 fcd_12" vType="DEFAULT_VEHTYPE" speedFactor="1.05" vaporized=""/>
    <tripinfo id="11" depart="509.00" departLane="a69_0" departPos="5.10" departSpeed="0.00" departDelay="0.40" arrival="883.00" arrivalLane="b2[1][1][1]b_0" arrivalPos="325.74" arrivalSpeed="13.50" duration="374.00" routeLength="3023.81" waitingTime="120.00" waitingCount="3" stopTime="0.00" timeLoss="159.38" rerouteNo="0" devices="vehroute_11 tripinfo_11 fcd_11" vType="DEFAULT_VEHTYPE" speedFactor="1.03" vaporized=""/>
    <tripinfo id="14" depart="583.00" departLane="a36_0" departPos="5.10" departSpeed="0.00" departDelay="0.65" arrival="945.00" arrivalLane="b10_0" arrivalPos="224.30" arrivalSpeed="13.35" duration="362.00" routeLength="2939.16" waitingTime="84.00" waitingCount="7" stopTime="0.00" timeLoss="143.86" rerouteNo="0" devices="vehroute_14 tripinfo_14 fcd_14" vType="DEFAULT_VEHTYPE" speedFactor="0.99" vaporized=""/>
    <tripinfo id="15" depart="615.00" departLane="a36_0" departPos="5.10" departSpeed="0.00" departDelay="0.61" arrival="948.00" arrivalLane="b10_0" arrivalPos="224.30" arrivalSpeed="12.74" duration="333.00" routeLength="2939.16" waitingTime="54.00" waitingCount="4" stopTime="0.00" timeLoss="99.62" rerouteNo="0" devices="vehroute_15 tripinfo_15 fcd_15" vType="DEFAULT_VEHTYPE" speedFactor="0.93" vaporized=""/>
    <tripinfo id="19" depart="691.00" departLane="a69_0" departPos="5.10" departSpeed="0.00" departDelay="0.58" arrival="1002.00" arrivalLane="b2[1][1][1]b_0" arrivalPos="325.74" arrivalSpeed="15.16" duration="311.00" routeLength="3023.81" waitingTime="76.00" waitingCount="4" stopTime="0.00" timeLoss="121.41" rerouteNo="0" devices="vehroute_19 tripinfo_19 fcd_19" vType="DEFAULT_VEHTYPE" speedFactor="1.16" vaporized=""/>
    <tripinfo id="17" depart="637.00" departLane="a69_0" departPos="5.10" departSpeed="0.00" departDelay="0.21" arrival="1009.00" arrivalLane="b2[1][1][1]b_1" arrivalPos="325.74" arrivalSpeed="12.01" duration="372.00" routeLength="3023.81" waitingTime="92.00" waitingCount="4" stopTime="0.00" timeLoss="137.17" rerouteNo="0" devices="vehroute_17 tripinfo_17 fcd_17" vType="DEFAULT_VEHTYPE" speedFactor="0.94" vaporized=""/>
    <tripinfo id="18" depart="640.00" departLane="a69_0" departPos="5.10" departSpeed="0.00" departDelay="0.04" arrival="1010.00" arrivalLane="b2[1][1][1]b_0" arrivalPos="325.74" arrivalSpeed="12.21" duration="370.00" routeLength="3020.85" waitingTime="80.00" waitingCount="4" stopTime="0.00" timeLoss="134.75" rerouteNo="0" devices="vehroute_18 tripinfo_18 fcd_18" vType="DEFAULT_VEHTYPE" speedFactor="0.94" vaporized=""/>
    <tripinfo id="21" depart="764.00" departLane="a36_0" departPos="5.10" departSpeed="0.00" departDelay="0.86" arrival="1103.00" arrivalLane="b10_0" arrivalPos="224.30" arrivalSpeed="13.61" duration="339.00" routeLength="2939.16" waitingTime="65.00" waitingCount="5" stopTime="0.00" timeLoss="124.20" rerouteNo="0" devices="vehroute_21 tripinfo_21 fcd_21" vType="DEFAULT_VEHTYPE" speedFactor="1.01" vaporized=""/>
    <tripinfo id="20" depart="763.00" departLane="a69_0" departPos="5.10" departSpeed="0.00" departDelay="0.68" arrival="1130.00" arrivalLane="b2[1][1][1]b_1" arrivalPos="325.74" arrivalSpeed="13.15" duration="367.00" routeLength="3025.34" waitingTime="98.00" waitingCount="5" stopTime="0.00" timeLoss="150.77" rerouteNo="0" devices="vehroute_20 tripinfo_20 fcd_20" vType="DEFAULT_VEHTYPE" speedFactor="1.02" vaporized=""/>
    <tripinfo id="22" depart="795.00" departLane="a69_0" departPos="5.10" departSpeed="0.00" departDelay="0.11" arrival="1131.00" arrivalLane="b2[1][1][1]b_0" arrivalPos="325.74" arrivalSpeed="13.17" duration="336.00" routeLength="3023.81" waitingTime="76.00" waitingCount="3" stopTime="0.00" timeLoss="110.75" rerouteNo="0" devices="vehroute_22 tripinfo_22 fcd_22" vType="DEFAULT_VEHTYPE" speedFactor="0.97" vaporized=""/>
    <tripinfo id="16" depart="626.00" departLane="a69_0" departPos="5.10" departSpeed="0.00" departDelay="0.49" arrival="1137.00" arrivalLane="b2[1][1][1]b_0" arrivalPos="325.74" arrivalSpeed="11.76" duration="511.00" routeLength="3025.34" waitingTime="201.00" waitingCount="7" stopTime="0.00" timeLoss="259.71" rerouteNo="0" devices="vehroute_16 tripinfo_16 fcd_16" vType="DEFAULT_VEHTYPE" speedFactor="0.88" vaporized=""/>
    <tripinfo id="26" depart="838.00" departLane="a36_0" departPos="5.10" departSpeed="0.00" departDelay="0.82" arrival="1239.00" arrivalLane="b10_0" arrivalPos="224.30" arrivalSpeed="12.16" duration="401.00" routeLength="2939.16" waitingTime="98.00" waitingCount="7" stopTime="0.00" timeLoss="165.41" rerouteNo="0" devices="vehroute_26 tripinfo_26 fcd_26" vType="DEFAULT_VEHTYPE" speedFactor="0.92" vaporized=""/>
    <tripinfo id="30" depart="956.00" departLane="a69_0" departPos="5.10" departSpeed="0.00" departDelay="0.61" arrival="1251.00" arrivalLane="b2[1][1][1]b_1" arrivalPos="325.74" arrivalSpeed="16.30" duration="295.00" routeLength="3020.85" waitingTime="77.00" waitingCount="2" stopTime="0.00" timeLoss="108.46" rerouteNo="0" devices="vehroute_30 tripinfo_30 fcd_30" vType="DEFAULT_VEHTYPE" speedFactor="1.18" vaporized=""/>
    <tripinfo id="28" depart="861.00" departLane="a69_0" departPos="5.10" departSpeed="0.00" departDelay="0.40" arrival="1252.00" arrivalLane="b2[1][1][1]b_0" arrivalPos="325.74" arrivalSpeed="14.82" duration="391.00" routeLength="3023.81" waitingTime="140.00" waitingCount="4" stopTime="0.00" timeLoss="196.74" rerouteNo="0" devices="vehroute_28 tripinfo_28 fcd_28" vType="DEFAULT_VEHTYPE" speedFactor="1.13" vaporized=""/>
    <tripinfo id="27" depart="838.00" departLane="a69_0" departPos="5.10" departSpeed="0.00" departDelay="0.48" arrival="1258.00" arrivalLane="b2[1][1][1]b_0" arrivalPos="325.74" arrivalSpeed="12.10" duration="420.00" routeLength="3020.85" waitingTime="129.00" waitingCount="4" stopTime="0.00" timeLoss="187.71" rerouteNo="0" devices="vehroute_27 tripinfo_27 fcd_27" vType="DEFAULT_VEHTYPE" speedFactor="0.95" vaporized=""/>
    <tripinfo id="29" depart="926.00" departLane="a69_0" departPos="5.10" departSpeed="0.00" departDelay="0.63" arrival="1260.00" arrivalLane="b2[1][1][1]b_0" arrivalPos="325.74" arrivalSpeed="12.18" duration="334.00" routeLength="3028.30" waitingTime="57.00" waitingCount="4" stopTime="0.00" timeLoss="97.30" rerouteNo="0" devices="vehroute_29 tripinfo_29 fcd_29" vType="DEFAULT_VEHTYPE" speedFactor="0.93" vaporized=""/>
    <tripinfo id="23" depart="806.00" departLane="a69_0" departPos="5.10" departSpeed="0.00" departDelay="0.99" arrival="1262.00" arrivalLane="b2[1][1][1]b_0" arrivalPos="325.74" arrivalSpeed="11.44" duration="456.00" routeLength="3023.81" waitingTime="169.00" waitingCount="4" stopTime="0.00" timeLoss="208.71" rerouteNo="0" devices="vehroute_23 tripinfo_23 fcd_23" vType="DEFAULT_VEHTYPE" speedFactor="0.89" vaporized=""/>
    <tripinfo id="24" depart="819.00" departLane="a69_0" departPos="5.10" departSpeed="0.00" departDelay="0.51" arrival="1264.00" arrivalLane="b2[1][1][1]b_1" arrivalPos="325.74" arrivalSpeed="10.92" duration="445.00" routeLength="3020.85" waitingTime="134.00" waitingCount="4" stopTime="0.00" timeLoss="178.70" rerouteNo="0" devices="vehroute_24 tripinfo_24 fcd_24" vType="DEFAULT_VEHTYPE" speedFactor="0.83" vaporized=""/>
    <tripinfo id="25" depart="825.00" departLane="a69_0" departPos="5.10" departSpeed="0.00" departDelay="0.98" arrival="1265.00" arrivalLane="b2[1][1][1]b_0" arrivalPos="325.74" arrivalSpeed="11.01" duration="440.00" routeLength="3020.85" waitingTime="135.00" waitingCount="4" stopTime="0.00" timeLoss="187.76" rerouteNo="0" devices="vehroute_25 tripinfo_25 fcd_25" vType="DEFAULT_VEHTYPE" speedFactor="0.87" vaporized=""/>
    <tripinfo id="31" depart="1000.00" departLane="a69_0" departPos="5.10" departSpeed="0.00" departDelay="0.09" arrival="1340.00" arrivalLane="b2[1][1][1]b_0" arrivalPos="325.74" arrivalSpeed="15.91" duration="340.00" routeLength="3020.85" waitingTime="114.00" waitingCount="4" stopTime="0.00" timeLoss="149.28" rerouteNo="0" devices="vehroute_31 tripinfo_31 fcd_31" vType="DEFAULT_VEHTYPE" speedFactor="1.15" vaporized=""/>
    <tripinfo id="32" depart="1007.00" departLane="a69_0" departPos="5.10" departSpeed="0.00" departDelay="0.07" arrival="1381.00" arrivalLane="b2[1][1][1]b_0" arrivalPos="325.74" arrivalSpeed="13.95" duration="374.00" routeLength="3028.30" waitingTime="116.00" waitingCount="4" stopTime="0.00" timeLoss="154.49" rerouteNo="0" devices="vehroute_32 tripinfo_32 fcd_32" vType="DEFAULT_VEHTYPE" speedFactor="1.01" vaporized=""/>
    <tripinfo id="33" depart="1071.00" departLane="a69_0" departPos="5.10" departSpeed="0.00" departDelay="0.52" arrival="1463.00" arrivalLane="b2[1][1][1]b_0" arrivalPos="325.74" arrivalSpeed="15.75" duration="392.00" routeLength="3023.81" waitingTime="160.00" waitingCount="4" stopTime="0.00" timeLoss="203.92" rerouteNo="0" devices="vehroute_33 tripinfo_33 fcd_33" vType="DEFAULT_VEHTYPE" speedFactor="1.17" vaporized=""/>
    <tripinfo id="37" depart="1231.00" departLane="a69_0" departPos="5.10" departSpeed="0.00" departDelay="0.97" arrival="1502.00" arrivalLane="b2[1][1][1]b_1" arrivalPos="325.74" arrivalSpeed="16.37" duration="271.00" routeLength="3023.81" waitingTime="57.00" waitingCount="2" stopTime="0.00" timeLoss="84.32" rerouteNo="0" devices="vehroute_37 tripinfo_37 fcd_37" vType="DEFAULT_VEHTYPE" speedFactor="1.18" vaporized=""/>
    <tripinfo id="35" depart="1144.00" departLane="a69_0" departPos="5.10" departSpeed="0.00" departDelay="0.89" arrival="1506.00" arrivalLane="b2[1][1][1]b_0" arrivalPos="325.74" arrivalSpeed="13.87" duration="362.00" routeLength="3028.30" waitingTime="102.00" waitingCount="5" stopTime="0.00" timeLoss="145.60" rerouteNo="0" devices="vehroute_35 tripinfo_35 fcd_35" vType="DEFAULT_VEHTYPE" speedFactor="1.02" vaporized=""/>
    <tripinfo id="36" depart="1162.00" departLane="a69_0" departPos="5.10" departSpeed="0.00" departDelay="0.90" arrival="1507.00" arrivalLane="b2[1][1][1]b_1" arrivalPos="325.74" arrivalSpeed="12.69" duration="345.00" routeLength="3023.81" waitingTime="72.00" waitingCount="3" stopTime="0.00" timeLoss="118.62" rerouteNo="0" devices="vehroute_36 tripinfo_36 fcd_36" vType="DEFAULT_VEHTYPE" speedFactor="0.97" vaporized=""/>
    <tripinfo id="34" depart="1130.00" departLane="a69_0" departPos="5.10" departSpeed="0.00" departDelay="0.58" arrival="1508.00" arrivalLane="b2[1][1][1]b_0" arrivalPos="325.74" arrivalSpeed="13.39" duration="378.00" routeLength="3020.85" waitingTime="105.00" waitingCount="6" stopTime="0.00" timeLoss="156.98" rerouteNo="0" devices="vehroute_34 tripinfo_34 fcd_34" vType="DEFAULT_VEHTYPE" speedFactor="0.99" vaporized=""/>
    <tripinfo id="38" depart="1247.00" departLane="a69_0" departPos="5.10" departSpeed="0.00" departDelay="0.24" arrival="1589.00" arrivalLane="b2[1][1][1]b_0" arrivalPos="325.74" arrivalSpeed="15.12" duration="342.00" routeLength="3025.34" waitingTime="98.00" waitingCount="5" stopTime="0.00" timeLoss="142.51" rerouteNo="0" devices="vehroute_38 tripinfo_38 fcd_38" vType="DEFAULT_VEHTYPE" speedFactor="1.10" vaporized=""/>
    <tripinfo id="39" depart="1276.00" departLane="a69_0" departPos="5.10" departSpeed="0.00" departDelay="0.75" arrival="1634.00" arrivalLane="b2[1][1][1]b_0" arrivalPos="325.74" arrivalSpeed="11.48" duration="358.00" routeLength="3020.85" waitingTime="74.00" waitingCount="3" stopTime="0.00" timeLoss="113.81" rerouteNo="0" devices="vehroute_39 tripinfo_39 fcd_39" vType="DEFAULT_VEHTYPE" speedFactor="0.90" vaporized=""/>
    <tripinfo id="44" depart="1408.00" departLane="a36_0" departPos="5.10" departSpeed="0.00" departDelay="0.25" arrival="1676.00" arrivalLane="b10_0" arrivalPos="224.30" arrivalSpeed="13.92" duration="268.00" routeLength="2939.16" waitingTime="20.00" waitingCount="3" stopTime="0.00" timeLoss="60.92" rerouteNo="0" devices="vehroute_44 tripinfo_44 fcd_44" vType="DEFAULT_VEHTYPE" speedFactor="1.04" vaporized=""/>
    <tripinfo id="40" depart="1314.00" departLane="a36_0" departPos="5.10" departSpeed="0.00" departDelay="0.73" arrival="1678.00" arrivalLane="b10_0" arrivalPos="224.30" arrivalSpeed="14.03" duration="364.00" routeLength="2939.16" waitingTime="99.00" waitingCount="5" stopTime="0.00" timeLoss="153.71" rerouteNo="0" devices="vehroute_40 tripinfo_40 fcd_40" vType="DEFAULT_VEHTYPE" speedFactor="1.03" vaporized=""/>
    <tripinfo id="42" depart="1392.00" departLane="a69_0" departPos="5.10" departSpeed="0.00" departDelay="0.74" arrival="1713.00" arrivalLane="b2[1][1][1]b_0" arrivalPos="325.74" arrivalSpeed="13.99" duration="321.00" routeLength="3020.85" waitingTime="83.00" waitingCount="3" stopTime="0.00" timeLoss="119.93" rerouteNo="0" devices="vehroute_42 tripinfo_42 fcd_42" vType="DEFAULT_VEHTYPE" speedFactor="1.09" vaporized=""/>
    <tripinfo id="43" depart="1395.00" departLane="a69_0" departPos="5.10" departSpeed="0.00" departDelay="1.52" arrival="1716.00" arrivalLane="b2[1][1][1]b_0" arrivalPos="325.74" arrivalSpeed="13.27" duration="321.00" routeLength="3023.81" waitingTime="71.00" waitingCount="3" stopTime="0.00" timeLoss="109.21" rerouteNo="0" devices="vehroute_43 tripinfo_43 fcd_43" vType="DEFAULT_VEHTYPE" speedFactor="1.04" vaporized=""/>
    <tripinfo id="45" depart="1430.00" departLane="a69_0" departPos="5.10" departSpeed="0.00" departDelay="0.16" arrival="1716.00" arrivalLane="b2[1][1][1]b_1" arrivalPos="325.74" arrivalSpeed="14.88" duration="286.00" routeLength="3023.81" waitingTime="45.00" waitingCount="2" stopTime="0.00" timeLoss="83.70" rerouteNo="0" devices="vehroute_45 tripinfo_45 fcd_45" vType="DEFAULT_VEHTYPE" speedFactor="1.09" vaporized=""/>
    <tripinfo id="41" depart="1372.00" departLane="a69_0" departPos="5.10" departSpeed="0.00" departDelay="0.73" arrival="1757.00" arrivalLane="b2[1][1][1]b_0" arrivalPos="325.74" arrivalSpeed="12.78" duration="385.00" routeLength="3025.34" waitingTime="108.00" waitingCount="5" stopTime="0.00" timeLoss="155.00" rerouteNo="0" devices="vehroute_41 tripinfo_41 fcd_41" vType="DEFAULT_VEHTYPE" speedFactor="0.96" vaporized=""/>
    <tripinfo id="46" depart="1458.00" departLane="a36_0" departPos="5.10" departSpeed="0.00" departDelay="0.73" arrival="1846.00" arrivalLane="b10_0" arrivalPos="224.30" arrivalSpeed="13.67" duration="388.00" routeLength="2939.16" waitingTime="115.00" waitingCount="6" stopTime="0.00" timeLoss="171.36" rerouteNo="0" devices="vehroute_46 tripinfo_46 fcd_46" vType="DEFAULT_VEHTYPE" speedFactor="1.00" vaporized=""/>
    <tripinfo id="47" depart="1550.00" departLane="a36_0" departPos="5.10" departSpeed="0.00" departDelay="0.79" arrival="1975.00" arrivalLane="b10_0" arrivalPos="224.30" arrivalSpeed="11.50" duration="425.00" routeLength="2939.16" waitingTime="127.00" waitingCount="7" stopTime="0.00" timeLoss="184.72" rerouteNo="0" devices="vehroute_47 tripinfo_47 fcd_47" vType="DEFAULT_VEHTYPE" speedFactor="0.90" vaporized=""/>
    <tripinfo id="51" depart="1745.00" departLane="a69_0" departPos="5.10" departSpeed="0.00" departDelay="0.43" arrival="2078.00" arrivalLane="b2[1][1][1]b_0" arrivalPos="325.74" arrivalSpeed="16.00" duration="333.00" routeLength="3028.30" waitingTime="106.00" waitingCount="3" stopTime="0.00" timeLoss="144.87" rerouteNo="0" devices="vehroute_51 tripinfo_51 fcd_51" vType="DEFAULT_VEHTYPE" speedFactor="1.17" vaporized=""/>
    <tripinfo id="52" depart="1805.00" departLane="a69_0" departPos="5.10" departSpeed="0.00" departDelay="0.85" arrival="2090.00" arrivalLane="b2[1][1][1]b_0" arrivalPos="325.74" arrivalSpeed="14.09" duration="285.00" routeLength="3023.81" waitingTime="38.00" waitingCount="2" stopTime="0.00" timeLoss="69.11" rerouteNo="0" devices="vehroute_52 tripinfo_52 fcd_52" vType="DEFAULT_VEHTYPE" speedFactor="1.02" vaporized=""/>
    <tripinfo id="48" depart="1722.00" departLane="a69_0" departPos="5.10" departSpeed="0.00" departDelay="0.36" arrival="2097.00" arrivalLane="b2[1][1][1]b_0" arrivalPos="325.74" arrivalSpeed="11.05" duration="375.00" routeLength="3023.81" waitingTime="87.00" waitingCount="3" stopTime="0.00" timeLoss="122.99" rerouteNo="0" devices="vehroute_48 tripinfo_48 fcd_48" vType="DEFAULT_VEHTYPE" speedFactor="0.88" vaporized=""/>
    <tripinfo id="50" depart="1734.00" departLane="a69_0" departPos="5.10" departSpeed="0.00" departDelay="0.11" arrival="2101.00" arrivalLane="b2[1][1][1]b_0" arrivalPos="325.74" arrivalSpeed="11.19" duration="367.00" routeLength="3020.85" waitingTime="67.00" waitingCount="2" stopTime="0.00" timeLoss="109.91" rerouteNo="0" devices="vehroute_50 tripinfo_50 fcd_50" vType="DEFAULT_VEHTYPE" speedFactor="0.85" vaporized=""/>
    <tripinfo id="49" depart="1726.00" departLane="a69_0" departPos="5.10" departSpeed="0.00" departDelay="0.32" arrival="2103.00" arrivalLane="b2[1][1][1]b_1" arrivalPos="325.74" arrivalSpeed="11.26" duration="377.00" routeLength="3028.30" waitingTime="78.00" waitingCount="3" stopTime="0.00" timeLoss="117.85" rerouteNo="0" devices="vehroute_49 tripinfo_49 fcd_49" vType="DEFAULT_VEHTYPE" speedFactor="0.85" vaporized=""/>
    <tripinfo id="53" depart="1822.00" departLane="a69_0" departPos="5.10" departSpeed="0.00" departDelay="0.01" arrival="2209.00" arrivalLane="b2[1][1][1]b_0" arrivalPos="325.74" arrivalSpeed="15.16" duration="387.00" routeLength="3025.34" waitingTime="140.00" waitingCount="5" stopTime="0.00" timeLoss="186.36" rerouteNo="0" devices="vehroute_53 tripinfo_53 fcd_53" vType="DEFAULT_VEHTYPE" speedFactor="1.10" vaporized=""/>
    <tripinfo id="54" depart="1825.00" departLane="a69_0" departPos="5.10" departSpeed="0.00" departDelay="0.38" arrival="2210.00" arrivalLane="b2[1][1][1]b_1" arrivalPos="325.74" arrivalSpeed="13.33" duration="385.00" routeLength="3020.85" waitingTime="117.00" waitingCount="6" stopTime="0.00" timeLoss="166.23" rerouteNo="0" devices="vehroute_54 tripinfo_54 fcd_54" vType="DEFAULT_VEHTYPE" speedFactor="1.00" vaporized=""/>
    <tripinfo id="55" depart="1836.00" departLane="a36_0" departPos="5.10" departSpeed="0.00" departDelay="0.99" arrival="2213.00" arrivalLane="b10_0" arrivalPos="224.30" arrivalSpeed="13.12" duration="377.00" routeLength="2939.16" waitingTime="105.00" waitingCount="6" stopTime="0.00" timeLoss="160.59" rerouteNo="0" devices="vehroute_55 tripinfo_55 fcd_55" vType="DEFAULT_VEHTYPE" speedFactor="1.00" vaporized=""/>
    <tripinfo id="56" depart="1892.00" departLane="a69_0" departPos="5.10" departSpeed="0.00" departDelay="0.18" arrival="2220.00" arrivalLane="b2[1][1][1]b_0" arrivalPos="325.74" arrivalSpeed="12.10" duration="328.00" routeLength="3023.81" waitingTime="54.00" waitingCount="1" stopTime="0.00" timeLoss="82.82" rerouteNo="0" devices="vehroute_56 tripinfo_56 fcd_56" vType="DEFAULT_VEHTYPE" speedFactor="0.90" vaporized=""/>
    <tripinfo id="59" depart="2032.00" departLane="a36_0" departPos="5.10" departSpeed="0.00" departDelay="0.01" arrival="2328.00" arrivalLane="b10_0" arrivalPos="224.30" arrivalSpeed="13.01" duration="296.00" routeLength="2939.16" waitingTime="30.00" waitingCount="2" stopTime="0.00" timeLoss="73.24" rerouteNo="0" devices="vehroute_59 tripinfo_59 fcd_59" vType="DEFAULT_VEHTYPE" speedFactor="0.97" vaporized=""/>
    <tripinfo id="57" depart="1917.00" departLane="a69_0" departPos="5.10" departSpeed="0.00" departDelay="0.07" arrival="2336.00" arrivalLane="b2[1][1][1]b_0" arrivalPos="325.74" arrivalSpeed="14.63" duration="419.00" routeLength="3028.30" waitingTime="173.00" waitingCount="6" stopTime="0.00" timeLoss="225.94" rerouteNo="0" devices="vehroute_57 tripinfo_57 fcd_57" vType="DEFAULT_VEHTYPE" speedFactor="1.14" vaporized=""/>
    <tripinfo id="58" depart="1944.00" departLane="a69_0" departPos="5.10" departSpeed="0.00" departDelay="0.96" arrival="2338.00" arrivalLane="b2[1][1][1]b_0" arrivalPos="325.74" arrivalSpeed="14.11" duration="394.00" routeLength="3020.85" waitingTime="126.00" waitingCount="5" stopTime="0.00" timeLoss="179.34" rerouteNo="0" devices="vehroute_58 tripinfo_58 fcd_58" vType="DEFAULT_VEHTYPE" speedFactor="1.02" vaporized=""/>
    <tripinfo id="61" depart="2063.00" departLane="a69_0" departPos="5.10" departSpeed="0.00" departDelay="0.05" arrival="2339.00" arrivalLane="b2[1][1][1]b_1" arrivalPos="325.74" arrivalSpeed="15.10" duration="276.00" routeLength="3023.81" waitingTime="49.00" waitingCount="2" stopTime="0.00" timeLoss="78.32" rerouteNo="0" devices="vehroute_61 tripinfo_61 fcd_61" vType="DEFAULT_VEHTYPE" speedFactor="1.12" vaporized=""/>
    <tripinfo id="60" depart="2040.00" departLane="a69_0" departPos="5.10" departSpeed="0.00" departDelay="0.33" arrival="2340.00" arrivalLane="b2[1][1][1]b_0" arrivalPos="325.74" arrivalSpeed="14.01" duration="300.00" routeLength="3028.30" waitingTime="58.00" waitingCount="3" stopTime="0.00" timeLoss="96.45" rerouteNo="0" devices="vehroute_60 tripinfo_60 fcd_60" vType="DEFAULT_VEHTYPE" speedFactor="1.08" vaporized=""/>
    <tripinfo id="62" depart="2069.00" departLane="a69_0" departPos="5.10" departSpeed="0.00" departDelay="0.49" arrival="2348.00" arrivalLane="b2[1][1][1]b_0" arrivalPos="325.74" arrivalSpeed="13.84" duration="279.00" routeLength="3023.81" waitingTime="30.00" waitingCount="2" stopTime="0.00" timeLoss="61.54" rerouteNo="0" devices="vehroute_62 tripinfo_62 fcd_62" vType="DEFAULT_VEHTYPE" speedFactor="1.02" vaporized=""/>
    <tripinfo id="63" depart="2072.00" departLane="a69_0" departPos="5.10" departSpeed="0.00" departDelay="1.41" arrival="2353.00" arrivalLane="b2[1][1][1]b_0" arrivalPos="325.74" arrivalSpeed="13.54" duration="281.00" routeLength="3023.81" waitingTime="28.00" waitingCount="2" stopTime="0.00" timeLoss="57.96" rerouteNo="0" devices="vehroute_63 tripinfo_63 fcd_63" vType="DEFAULT_VEHTYPE" speedFactor="0.99" vaporized=""/>
    <tripinfo id="68" depart="2225.00" departLane="a69_0" departPos="5.10" departSpeed="0.00" departDelay="0.01" arrival="2469.00" arrivalLane="b2[1][1][1]b_0" arrivalPos="325.74" arrivalSpeed="13.51" duration="244.00" routeLength="3023.81" waitingTime="7.00" waitingCount="1" stopTime="0.00" timeLoss="32.98" rerouteNo="0" devices="vehroute_68 tripinfo_68 fcd_68" vType="DEFAULT_VEHTYPE" speedFactor="1.04" vaporized=""/>
    <tripinfo id="69" depart="2231.00" departLane="a69_0" departPos="5.10" departSpeed="0.00" departDelay="0.81" arrival="2472.00" arrivalLane="b2[1][1][1]b_0" arrivalPos="325.74" arrivalSpeed="13.03" duration="241.00" routeLength="3023.81" waitingTime="1.00" waitingCount="1" stopTime="0.00" timeLoss="24.95" rerouteNo="0" devices="vehroute_69 tripinfo_69 fcd_69" vType="DEFAULT_VEHTYPE" speedFactor="1.02" vaporized=""/>
    <tripinfo id="65" depart="2170.00" departLane="a69_0" departPos="5.10" departSpeed="0.00" departDelay="0.81" arrival="2474.00" arrivalLane="b2[1][1][1]b_0" arrivalPos="325.74" arrivalSpeed="11.41" duration="304.00" routeLength="3028.30" waitingTime="17.00" waitingCount="3" stopTime="0.00" timeLoss="54.23" rerouteNo="0" devices="vehroute_65 tripinfo_65 fcd_65" vType="DEFAULT_VEHTYPE" speedFactor="0.88" vaporized=""/>