<?xml version="1.0" encoding="UTF-8"?>

<!-- generated on 2025-03-21 18:08:04 by Eclipse SUMO sumo Version 1.21.0
<sumoConfiguration xmlns:xsi="http://www.w3.org/2001/XMLSchema-instance" xsi:noNamespaceSchemaLocation="http://sumo.dlr.de/xsd/sumoConfiguration.xsd">

    <input>
        <net-file value="${STATICPATH}/joined_lanes.net.xml"/>
        <route-files value="${SIMULATIONPATH}/generatedRoutes.rou.xml"/>
        <additional-files value="${STATICPATH}/detectors.add.xml,${STATICPATH}/joined_vtypes.add.xml,${STATICPATH}/joined_tls.add.xml"/>
    </input>

    <output>
        <fcd-output value="${SIMULATIONPATH}/fcd.xml"/>
        <queue-output value="${SIMULATIONPATH}/queue.xml"/>
        <summary-output value="${SIMULATIONPATH}/summary.xml"/>
        <tripinfo-output value="${SIMULATIONPATH}/tripinfos.xml"/>
        <vehroute-output value="${SIMULATIONPATH}/vehroute.xml"/>
        <save-state.prefix value="configs\state"/>
    </output>

    <processing>
        <ignore-junction-blocker value="1"/>
        <ignore-route-errors value="true"/>
        <time-to-teleport value="-1"/>
    </processing>

    <report>
        <log value="C:/Users/fabio/Desktop/sumo_log.txt"/>
        <no-step-log value="true"/>
    </report>

    <emissions>
        <phemlight-path value="configs\./PHEMlight/"/>
    </emissions>

    <traci_server>
        <remote-port value="60308"/>
    </traci_server>

</sumoConfiguration>
-->

<tripinfos xmlns:xsi="http://www.w3.org/2001/XMLSchema-instance" xsi:noNamespaceSchemaLocation="http://sumo.dlr.de/xsd/tripinfo_file.xsd">
    <tripinfo id="0" depart="93.00" departLane="a122_0" departPos="5.10" departSpeed="0.00" departDelay="0.08" arrival="472.00" arrivalLane="b23_0" arrivalPos="155.55" arrivalSpeed="13.73" duration="379.00" routeLength="2459.74" waitingTime="171.00" waitingCount="4" stopTime="0.00" timeLoss="209.18" rerouteNo="0" devices="vehroute_0 tripinfo_0 fcd_0" vType="DEFAULT_VEHTYPE" speedFactor="1.06" vaporized=""/>
    <tripinfo id="4" depart="221.00" departLane="a122_0" departPos="5.10" departSpeed="0.00" departDelay="0.14" arrival="475.00" arrivalLane="b23_0" arrivalPos="155.55" arrivalSpeed="13.48" duration="254.00" routeLength="2459.74" waitingTime="42.00" waitingCount="2" stopTime="0.00" timeLoss="78.49" rerouteNo="0" devices="vehroute_4 tripinfo_4 fcd_4" vType="DEFAULT_VEHTYPE" speedFactor="1.03" vaporized=""/>
    <tripinfo id="1" depart="131.00" departLane="a16_0" departPos="5.10" departSpeed="0.00" departDelay="0.82" arrival="488.00" arrivalLane="b10_0" arrivalPos="224.30" arrivalSpeed="11.83" duration="357.00" routeLength="3184.15" waitingTime="61.00" waitingCount="3" stopTime="0.00" timeLoss="108.12" rerouteNo="0" devices="vehroute_1 tripinfo_1 fcd_1" vType="DEFAULT_VEHTYPE" speedFactor="0.94" vaporized=""/>
    <tripinfo id="6" depart="246.00" departLane="a122_0" departPos="5.10" departSpeed="0.00" departDelay="0.58" arrival="595.00" arrivalLane="b23_0" arrivalPos="155.55" arrivalSpeed="14.14" duration="349.00" routeLength="2456.78" waitingTime="132.00" waitingCount="3" stopTime="0.00" timeLoss="177.32" rerouteNo="0" devices="vehroute_6 tripinfo_6 fcd_6" vType="DEFAULT_VEHTYPE" speedFactor="1.05" vaporized=""/>
    <tripinfo id="2" depart="209.00" departLane="a122_0" departPos="5.10" departSpeed="0.00" departDelay="0.99" arrival="598.00" arrivalLane="b23_0" arrivalPos="155.55" arrivalSpeed="13.57" duration="389.00" routeLength="2464.23" waitingTime="170.00" waitingCount="4" stopTime="0.00" timeLoss="210.37" rerouteNo="0" devices="vehroute_2 tripinfo_2 fcd_2" vType="DEFAULT_VEHTYPE" speedFactor="1.01" vaporized=""/>
    <tripinfo id="8" depart="316.00" departLane="a122_0" departPos="5.10" departSpeed="0.00" departDelay="0.49" arrival="604.00" arrivalLane="b23_0" arrivalPos="155.55" arrivalSpeed="11.77" duration="288.00" routeLength="2456.78" waitingTime="60.00" waitingCount="2" stopTime="0.00" timeLoss="96.62" rerouteNo="0" devices="vehroute_8 tripinfo_8 fcd_8" vType="DEFAULT_VEHTYPE" speedFactor="0.94" vaporized=""/>
    <tripinfo id="5" depart="225.00" departLane="a122_0" departPos="5.10" departSpeed="0.00" departDelay="0.75" arrival="611.00" arrivalLane="b23_0" arrivalPos="155.55" arrivalSpeed="10.92" duration="386.00" routeLength="2456.78" waitingTime="133.00" waitingCount="2" stopTime="0.00" timeLoss="169.71" rerouteNo="0" devices="vehroute_5 tripinfo_5 fcd_5" vType="DEFAULT_VEHTYPE" speedFactor="0.83" vaporized=""/>
    <tripinfo id="9" depart="321.00" departLane="a122_0" departPos="5.10" departSpeed="0.00" departDelay="0.15" arrival="613.00" arrivalLane="b23_0" arrivalPos="155.55" arrivalSpeed="11.84" duration="292.00" routeLength="2459.74" waitingTime="48.00" waitingCount="1" stopTime="0.00" timeLoss="81.69" rerouteNo="0" devices="vehroute_9 tripinfo_9 fcd_9" vType="DEFAULT_VEHTYPE" speedFactor="0.86" vaporized=""/>
    <tripinfo id="3" depart="210.00" departLane="a16_0" departPos="5.10" departSpeed="0.00" departDelay="0.61" arrival="614.00" arrivalLane="b10_0" arrivalPos="224.30" arrivalSpeed="14.75" duration="404.00" routeLength="3184.15" waitingTime="136.00" waitingCount="4" stopTime="0.00" timeLoss="188.76" rerouteNo="0" devices="vehroute_3 tripinfo_3 fcd_3" vType="DEFAULT_VEHTYPE" speedFactor="1.08" vaporized=""/>
    <tripinfo id="7" depart="292.00" departLane="a122_0" departPos="5.10" departSpeed="0.00" departDelay="0.69" arrival="615.00" arrivalLane="b23_0" arrivalPos="155.55" arrivalSpeed="11.05" duration="323.00" routeLength="2464.23" waitingTime="79.00" waitingCount="2" stopTime="0.00" timeLoss="119.11" rerouteNo="0" devices="vehroute_7 tripinfo_7 fcd_7" vType="DEFAULT_VEHTYPE" speedFactor="0.89" vaporized=""/>
    <tripinfo id="10" depart="364.00" departLane="a122_0" departPos="5.10" departSpeed="0.00" departDelay="0.24" arrival="617.00" arrivalLane="b23_0" arrivalPos="155.55" arrivalSpeed="13.86" duration="253.00" routeLength="2459.74" waitingTime="45.00" waitingCount="1" stopTime="0.00" timeLoss="87.60" rerouteNo="0" devices="vehroute_10 tripinfo_10 fcd_10" vType="DEFAULT_VEHTYPE" speedFactor="1.09" vaporized=""/>
    <tripinfo id="11" depart="381.00" departLane="a122_0" departPos="5.10" departSpeed="0.00" departDelay="0.61" arrival="718.00" arrivalLane="b23_0" arrivalPos="155.55" arrivalSpeed="14.17" duration="337.00" routeLength="2459.74" waitingTime="125.00" waitingCount="4" stopTime="0.00" timeLoss="162.32" rerouteNo="0" devices="vehroute_11 tripinfo_11 fcd_11" vType="DEFAULT_VEHTYPE" speedFactor="1.03" vaporized=""/>
    <tripinfo id="12" depart="419.00" departLane="a122_0" departPos="5.10" departSpeed="0.00" departDelay="0.08" arrival="720.00" arrivalLane="b23_0" arrivalPos="155.55" arrivalSpeed="14.07" duration="301.00" routeLength="2461.27" waitingTime="92.00" waitingCount="4" stopTime="0.00" timeLoss="129.33" rerouteNo="0" devices="vehroute_12 tripinfo_12 fcd_12" vType="DEFAULT_VEHTYPE" speedFactor="1.05" vaporized=""/>
    <tripinfo id="14" depart="460.00" departLane="a122_0" departPos="5.10" departSpeed="0.00" departDelay="0.23" arrival="723.00" arrivalLane="b23_0" arrivalPos="155.55" arrivalSpeed="13.02" duration="263.00" routeLength="2456.78" waitingTime="43.00" waitingCount="3" stopTime="0.00" timeLoss="81.56" rerouteNo="0" devices="vehroute_14 tripinfo_14 fcd_14" vType="DEFAULT_VEHTYPE" speedFactor="0.99" vaporized=""/>
    <tripinfo id="16" depart="478.00" departLane="a122_0" departPos="5.10" departSpeed="0.00" departDelay="0.91" arrival="730.00" arrivalLane="b23_0" arrivalPos="155.55" arrivalSpeed="11.86" duration="252.00" routeLength="2459.74" waitingTime="19.00" waitingCount="1" stopTime="0.00" timeLoss="46.96" rerouteNo="0" devices="vehroute_16 tripinfo_16 fcd_16" vType="DEFAULT_VEHTYPE" speedFactor="0.88" vaporized=""/>
    <tripinfo id="17" depart="487.00" departLane="a122_0" departPos="5.10" departSpeed="0.00" departDelay="0.40" arrival="736.00" arrivalLane="b23_0" arrivalPos="155.55" arrivalSpeed="12.34" duration="249.00" routeLength="2459.74" waitingTime="33.00" waitingCount="1" stopTime="0.00" timeLoss="58.05" rerouteNo="0" devices="vehroute_17 tripinfo_17 fcd_17" vType="DEFAULT_VEHTYPE" speedFactor="0.94" vaporized=""/>
    <tripinfo id="13" depart="437.00" departLane="a16_0" departPos="5.10" departSpeed="0.00" departDelay="0.01" arrival="739.00" arrivalLane="b10_0" arrivalPos="224.30" arrivalSpeed="14.95" duration="302.00" routeLength="3184.15" waitingTime="55.00" waitingCount="2" stopTime="0.00" timeLoss="94.02" rerouteNo="0" devices="vehroute_13 tripinfo_13 fcd_13" vType="DEFAULT_VEHTYPE" speedFactor="1.12" vaporized=""/>
    <tripinfo id="18" depart="513.00" departLane="a122_0" departPos="5.10" departSpeed="0.00" departDelay="0.90" arrival="848.00" arrivalLane="b23_0" arrivalPos="155.55" arrivalSpeed="12.63" duration="335.00" routeLength="2464.23" waitingTime="102.00" waitingCount="4" stopTime="0.00" timeLoss="142.01" rerouteNo="0" devices="vehroute_18 tripinfo_18 fcd_18" vType="DEFAULT_VEHTYPE" speedFactor="0.94" vaporized=""/>
    <tripinfo id="21" depart="625.00" departLane="a122_0" departPos="5.10" departSpeed="0.00" departDelay="0.31" arrival="849.00" arrivalLane="b23_0" arrivalPos="155.55" arrivalSpeed="13.28" duration="224.00" routeLength="2461.27" waitingTime="9.00" waitingCount="1" stopTime="0.00" timeLoss="46.03" rerouteNo="0" devices="vehroute_21 tripinfo_21 fcd_21" vType="DEFAULT_VEHTYPE" speedFactor="1.01" vaporized=""/>
    <tripinfo id="22" depart="630.00" departLane="a122_0" departPos="5.10" departSpeed="0.00" departDelay="0.58" arrival="851.00" arrivalLane="b23_0" arrivalPos="155.55" arrivalSpeed="12.56" duration="221.00" routeLength="2459.74" waitingTime="5.00" waitingCount="2" stopTime="0.00" timeLoss="36.85" rerouteNo="0" devices="vehroute_22 tripinfo_22 fcd_22" vType="DEFAULT_VEHTYPE" speedFactor="0.97" vaporized=""/>
    <tripinfo id="19" depart="527.00" departLane="a16_0" departPos="5.10" departSpeed="0.00" departDelay="0.05" arrival="865.00" arrivalLane="b10_0" arrivalPos="224.30" arrivalSpeed="15.25" duration="338.00" routeLength="3184.15" waitingTime="60.00" waitingCount="3" stopTime="0.00" timeLoss="135.29" rerouteNo="0" devices="vehroute_19 tripinfo_19 fcd_19" vType="DEFAULT_VEHTYPE" speedFactor="1.16" vaporized=""/>
    <tripinfo id="15" depart="471.00" departLane="a16_0" departPos="5.10" departSpeed="0.00" departDelay="0.44" arrival="870.00" arrivalLane="b10_0" arrivalPos="224.30" arrivalSpeed="12.40" duration="399.00" routeLength="3184.15" waitingTime="86.00" waitingCount="5" stopTime="0.00" timeLoss="146.81" rerouteNo="0" devices="vehroute_15 tripinfo_15 fcd_15" vType="DEFAULT_VEHTYPE" speedFactor="0.93" vaporized=""/>
    <tripinfo id="23" depart="701.00" departLane="a122_0" departPos="5.10" departSpeed="0.00" departDelay="0.36" arrival="975.00" arrivalLane="b23_0" arrivalPos="155.55" arrivalSpeed="12.12" duration="274.00" routeLength="2464.23" waitingTime="41.00" waitingCount="3" stopTime="0.00" timeLoss="71.65" rerouteNo="0" devices="vehroute_23 tripinfo_23 fcd_23" vType="DEFAULT_VEHTYPE" speedFactor="0.89" vaporized=""/>
    <tripinfo id="20" depart="548.00" departLane="a16_0" departPos="5.10" departSpeed="0.00" departDelay="0.71" arrival="993.00" arrivalLane="b10_0" arrivalPos="224.30" arrivalSpeed="13.00" duration="445.00" routeLength="3184.15" waitingTime="157.00" waitingCount="6" stopTime="0.00" timeLoss="215.66" rerouteNo="0" devices="vehroute_20 tripinfo_20 fcd_20" vType="DEFAULT_VEHTYPE" speedFactor="1.02" vaporized=""/>
    <tripinfo id="25" depart="778.00" departLane="a122_0" departPos="5.10" departSpeed="0.00" departDelay="0.26" arrival="1098.00" arrivalLane="b23_0" arrivalPos="155.55" arrivalSpeed="11.93" duration="320.00" routeLength="2459.74" waitingTime="90.00" waitingCount="1" stopTime="0.00" timeLoss="113.72" rerouteNo="0" devices="vehroute_25 tripinfo_25 fcd_25" vType="DEFAULT_VEHTYPE" speedFactor="0.87" vaporized=""/>
    <tripinfo id="26" depart="862.00" departLane="a122_0" departPos="5.10" departSpeed="0.00" departDelay="0.95" arrival="1104.00" arrivalLane="b23_0" arrivalPos="155.55" arrivalSpeed="11.51" duration="242.00" routeLength="2464.23" waitingTime="15.00" waitingCount="2" stopTime="0.00" timeLoss="45.28" rerouteNo="0" devices="vehroute_26 tripinfo_26 fcd_26" vType="DEFAULT_VEHTYPE" speedFactor="0.92" vaporized=""/>
    <tripinfo id="24" depart="751.00" departLane="a16_0" departPos="5.10" departSpeed="0.00" departDelay="0.36" arrival="1218.00" arrivalLane="b10_0" arrivalPos="224.30" arrivalSpeed="11.21" duration="467.00" routeLength="3184.15" waitingTime="125.00" waitingCount="6" stopTime="0.00" timeLoss="183.44" rerouteNo="0" devices="vehroute_24 tripinfo_24 fcd_24" vType="DEFAULT_VEHTYPE" speedFactor="0.83" vaporized=""/>
    <tripinfo id="27" depart="948.00" departLane="a122_0" departPos="5.10" departSpeed="0.00" departDelay="0.79" arrival="1224.00" arrivalLane="b23_0" arrivalPos="155.55" arrivalSpeed="12.28" duration="276.00" routeLength="2461.27" waitingTime="52.00" waitingCount="3" stopTime="0.00" timeLoss="86.47" rerouteNo="0" devices="vehroute_27 tripinfo_27 fcd_27" vType="DEFAULT_VEHTYPE" speedFactor="0.95" vaporized=""/>
    <tripinfo id="28" depart="1092.00" departLane="a122_0" departPos="5.10" departSpeed="0.00" departDelay="0.74" arrival="1337.00" arrivalLane="b23_0" arrivalPos="155.55" arrivalSpeed="14.88" duration="245.00" routeLength="2461.27" waitingTime="33.00" waitingCount="3" stopTime="0.00" timeLoss="86.13" rerouteNo="0" devices="vehroute_28 tripinfo_28 fcd_28" vType="DEFAULT_VEHTYPE" speedFactor="1.13" vaporized=""/>
    <tripinfo id="29" depart="1095.00" departLane="a122_0" departPos="5.10" departSpeed="0.00" departDelay="3.21" arrival="1348.00" arrivalLane="b23_0" arrivalPos="155.55" arrivalSpeed="12.93" duration="253.00" routeLength="2456.78" waitingTime="29.00" waitingCount="3" stopTime="0.00" timeLoss="60.66" rerouteNo="0" devices="vehroute_29 tripinfo_29 fcd_29" vType="DEFAULT_VEHTYPE" speedFactor="0.93" vaporized=""/>
    <tripinfo id="31" depart="1100.00" departLane="a122_0" departPos="5.10" departSpeed="0.00" departDelay="0.11" arrival="1350.00" arrivalLane="b23_0" arrivalPos="155.55" arrivalSpeed="14.89" duration="250.00" routeLength="2456.78" waitingTime="22.00" waitingCount="3" stopTime="0.00" timeLoss="94.18" rerouteNo="0" devices="vehroute_31 tripinfo_31 fcd_31" vType="DEFAULT_VEHTYPE" speedFactor="1.15" vaporized=""/>
    <tripinfo id="32" depart="1103.00" departLane="a122_0" departPos="5.10" departSpeed="0.00" departDelay="0.49" arrival="1352.00" arrivalLane="b23_0" arrivalPos="155.55" arrivalSpeed="13.09" duration="249.00" routeLength="2456.78" waitingTime="20.00" waitingCount="2" stopTime="0.00" timeLoss="69.42" rerouteNo="0" devices="vehroute_32 tripinfo_32 fcd_32" vType="DEFAULT_VEHTYPE" speedFactor="1.01" vaporized=""/>
    <tripinfo id="33" depart="1123.00" departLane="a122_0" departPos="5.10" departSpeed="0.00" departDelay="0.46" arrival="1353.00" arrivalLane="b23_0" arrivalPos="155.55" arrivalSpeed="15.67" duration="230.00" routeLength="2456.78" waitingTime="14.00" waitingCount="1" stopTime="0.00" timeLoss="76.41" rerouteNo="0" devices="vehroute_33 tripinfo_33 fcd_33" vType="DEFAULT_VEHTYPE" speedFactor="1.17" vaporized=""/>
    <tripinfo id="30" depart="1097.00" departLane="a16_0" departPos="5.10" departSpeed="0.00" departDelay="0.16" arrival="1423.00" arrivalLane="b10_0" arrivalPos="224.30" arrivalSpeed="15.09" duration="326.00" routeLength="3184.15" waitingTime="70.00" waitingCount="5" stopTime="0.00" timeLoss="127.75" rerouteNo="0" devices="vehroute_30 tripinfo_30 fcd_30" vType="DEFAULT_VEHTYPE" speedFactor="1.18" vaporized=""/>
    <tripinfo id="34" depart="1246.00" departLane="a122_0" departPos="5.10" departSpeed="0.00" departDelay="0.04" arrival="1471.00" arrivalLane="b23_0" arrivalPos="155.55" arrivalSpeed="13.69" duration="225.00" routeLength="2464.23" waitingTime="15.00" waitingCount="2" stopTime="0.00" timeLoss="43.97" rerouteNo="0" devices="vehroute_34 tripinfo_34 fcd_34" vType="DEFAULT_VEHTYPE" speedFactor="0.99" vaporized=""/>
    <tripinfo id="37" depart="1327.00" departLane="a122_0" departPos="5.10" departSpeed="0.00" departDelay="3.07" arrival="1578.00" arrivalLane="b23_0" arrivalPos="155.55" arrivalSpeed="16.13" duration="251.00" routeLength="2461.27" waitingTime="56.00" waitingCount="4" stopTime="0.00" timeLoss="98.17" rerouteNo="0" devices="vehroute_37 tripinfo_37 fcd_37" vType="DEFAULT_VEHTYPE" speedFactor="1.18" vaporized=""/>
    <tripinfo id="36" depart="1324.00" departLane="a122_0" departPos="5.10" departSpeed="0.00" departDelay="0.88" arrival="1597.00" arrivalLane="b23_0" arrivalPos="155.55" arrivalSpeed="12.78" duration="273.00" routeLength="2456.78" waitingTime="54.00" waitingCount="2" stopTime="0.00" timeLoss="88.16" rerouteNo="0" devices="vehroute_36 tripinfo_36 fcd_36" vType="DEFAULT_VEHTYPE" speedFactor="0.97" vaporized=""/>
    <tripinfo id="38" depart="1371.00" departLane="a16_0" departPos="5.10" departSpeed="0.00" departDelay="0.76" arrival="1680.00" arrivalLane="b10_0" arrivalPos="224.30" arrivalSpeed="14.33" duration="309.00" routeLength="3184.15" waitingTime="41.00" waitingCount="4" stopTime="0.00" timeLoss="97.11" rerouteNo="0" devices="vehroute_38 tripinfo_38 fcd_38" vType="DEFAULT_VEHTYPE" speedFactor="1.10" vaporized=""/>
    <tripinfo id="35" depart="1297.00" departLane="a16_0" departPos="5.10" departSpeed="0.00" departDelay="0.51" arrival="1684.00" arrivalLane="b10_0" arrivalPos="224.30" arrivalSpeed="13.63" duration="387.00" routeLength="3184.15" waitingTime="106.00" waitingCount="5" stopTime="0.00" timeLoss="157.45" rerouteNo="0" devices="vehroute_35 tripinfo_35 fcd_35" vType="DEFAULT_VEHTYPE" speedFactor="1.02" vaporized=""/>
    <tripinfo id="42" depart="1491.00" departLane="a16_0" departPos="5.10" departSpeed="0.00" departDelay="0.13" arrival="1810.00" arrivalLane="b10_0" arrivalPos="224.30" arrivalSpeed="14.25" duration="319.00" routeLength="3184.15" waitingTime="50.00" waitingCount="6" stopTime="0.00" timeLoss="105.01" rerouteNo="0" devices="vehroute_42 tripinfo_42 fcd_42" vType="DEFAULT_VEHTYPE" speedFactor="1.09" vaporized=""/>
    <tripinfo id="40" depart="1436.00" departLane="a122_0" departPos="5.10" departSpeed="0.00" departDelay="0.81" arrival="1826.00" arrivalLane="b23_0" arrivalPos="155.55" arrivalSpeed="13.52" duration="390.00" routeLength="2459.74" waitingTime="172.00" waitingCount="5" stopTime="0.00" timeLoss="216.17" rerouteNo="0" devices="vehroute_40 tripinfo_40 fcd_40" vType="DEFAULT_VEHTYPE" speedFactor="1.03" vaporized=""/>
    <tripinfo id="41" depart="1451.00" departLane="a122_0" departPos="5.10" departSpeed="0.00" departDelay="0.27" arrival="1830.00" arrivalLane="b23_0" arrivalPos="155.55" arrivalSpeed="13.17" duration="379.00" routeLength="2456.78" waitingTime="152.00" waitingCount="4" stopTime="0.00" timeLoss="191.23" rerouteNo="0" devices="vehroute_41 tripinfo_41 fcd_41" vType="DEFAULT_VEHTYPE" speedFactor="0.96" vaporized=""/>
    <tripinfo id="44" depart="1557.00" departLane="a122_0" departPos="5.10" departSpeed="0.00" departDelay="0.01" arrival="1832.00" arrivalLane="b23_0" arrivalPos="155.55" arrivalSpeed="13.94" duration="275.00" routeLength="2459.74" waitingTime="59.00" waitingCount="4" stopTime="0.00" timeLoss="102.21" rerouteNo="0" devices="vehroute_44 tripinfo_44 fcd_44" vType="DEFAULT_VEHTYPE" speedFactor="1.04" vaporized=""/>
    <tripinfo id="39" depart="1430.00" departLane="a122_0" departPos="5.10" departSpeed="0.00" departDelay="0.87" arrival="1836.00" arrivalLane="b23_0" arrivalPos="155.55" arrivalSpeed="11.86" duration="406.00" routeLength="2461.27" waitingTime="166.00" waitingCount="4" stopTime="0.00" timeLoss="205.85" rerouteNo="0" devices="vehroute_39 tripinfo_39 fcd_39" vType="DEFAULT_VEHTYPE" speedFactor="0.90" vaporized=""/>
    <tripinfo id="45" depart="1583.00" departLane="a122_0" departPos="5.10" departSpeed="0.00" departDelay="0.76" arrival="1838.00" arrivalLane="b23_0" arrivalPos="155.55" arrivalSpeed="14.21" duration="255.00" routeLength="2459.74" waitingTime="43.00" waitingCount="2" stopTime="0.00" timeLoss="89.58" rerouteNo="0" devices="vehroute_45 tripinfo_45 fcd_45" vType="DEFAULT_VEHTYPE" speedFactor="1.09" vaporized=""/>
    <tripinfo id="43" depart="1534.00" departLane="a122_0" departPos="5.10" departSpeed="0.00" departDelay="0.10" arrival="1840.00" arrivalLane="b23_0" arrivalPos="155.55" arrivalSpeed="14.29" duration="306.00" routeLength="2464.23" waitingTime="84.00" waitingCount="3" stopTime="0.00" timeLoss="131.85" rerouteNo="0" devices="vehroute_43 tripinfo_43 fcd_43" vType="DEFAULT_VEHTYPE" speedFactor="1.04" vaporized=""/>
    <tripinfo id="46" depart="1610.00" departLane="a122_0" departPos="5.10" departSpeed="0.00" departDelay="0.07" arrival="1951.00" arrivalLane="b23_0" arrivalPos="155.55" arrivalSpeed="12.60" duration="341.00" routeLength="2459.74" waitingTime="126.00" waitingCount="3" stopTime="0.00" timeLoss="159.95" rerouteNo="0" devices="vehroute_46 tripinfo_46 fcd_46" vType="DEFAULT_VEHTYPE" speedFactor="1.00" vaporized=""/>
    <tripinfo id="47" depart="1620.00" departLane="a122_0" departPos="5.10" departSpeed="0.00" departDelay="0.78" arrival="1957.00" arrivalLane="b23_0" arrivalPos="155.55" arrivalSpeed="11.28" duration="337.00" routeLength="2456.78" waitingTime="104.00" waitingCount="3" stopTime="0.00" timeLoss="137.53" rerouteNo="0" devices="vehroute_47 tripinfo_47 fcd_47" vType="DEFAULT_VEHTYPE" speedFactor="0.90" vaporized=""/>
    <tripinfo id="48" depart="1656.00" departLane="a122_0" departPos="5.10" departSpeed="0.00" departDelay="0.72" arrival="1961.00" arrivalLane="b23_0" arrivalPos="155.55" arrivalSpeed="11.18" duration="305.00" routeLength="2461.27" waitingTime="61.00" waitingCount="4" stopTime="0.00" timeLoss="99.07" rerouteNo="0" devices="vehroute_48 tripinfo_48 fcd_48" vType="DEFAULT_VEHTYPE" speedFactor="0.88" vaporized=""/>
    <tripinfo id="51" depart="1810.00" departLane="a122_0" departPos="5.10" departSpeed="0.00" departDelay="0.76" arrival="2066.00" arrivalLane="b23_0" arrivalPos="155.55" arrivalSpeed="16.05" duration="256.00" routeLength="2459.74" waitingTime="72.00" waitingCount="2" stopTime="0.00" timeLoss="102.19" rerouteNo="0" devices="vehroute_51 tripinfo_51 fcd_51" vType="DEFAULT_VEHTYPE" speedFactor="1.17" vaporized=""/>
    <tripinfo id="52" depart="1823.00" departLane="a122_0" departPos="5.10" departSpeed="0.00" departDelay="0.89" arrival="2072.00" arrivalLane="b23_0" arrivalPos="155.55" arrivalSpeed="13.84" duration="249.00" routeLength="2459.74" waitingTime="47.00" waitingCount="1" stopTime="0.00" timeLoss="72.44" rerouteNo="0" devices="vehroute_52 tripinfo_52 fcd_52" vType="DEFAULT_VEHTYPE" speedFactor="1.02" vaporized=""/>
    <tripinfo id="53" depart="1834.00" departLane="a122_0" departPos="5.10" departSpeed="0.00" departDelay="0.08" arrival="2076.00" arrivalLane="b23_0" arrivalPos="155.55" arrivalSpeed="13.94" duration="242.00" routeLength="2459.74" waitingTime="46.00" waitingCount="1" stopTime="0.00" timeLoss="78.03" rerouteNo="0" devices="vehroute_53 tripinfo_53 fcd_53" vType="DEFAULT_VEHTYPE" speedFactor="1.10" vaporized=""/>
    <tripinfo id="50" depart="1790.00" departLane="a122_0" departPos="5.10" departSpeed="0.00" departDelay="0.93" arrival="2084.00" arrivalLane="b23_0" arrivalPos="155.55" arrivalSpeed="11.25" duration="294.00" routeLength="2456.78" waitingTime="50.00" waitingCount="2" stopTime="0.00" timeLoss="84.37" rerouteNo="0" devices="vehroute_50 tripinfo_50 fcd_50" vType="DEFAULT_VEHTYPE" speedFactor="0.85" vaporized=""/>
    <tripinfo id="49" depart="1754.00" departLane="a122_0" departPos="5.10" departSpeed="0.00" departDelay="0.58" arrival="2087.00" arrivalLane="b23_0" arrivalPos="155.55" arrivalSpeed="11.36" duration="333.00" routeLength="2461.27" waitingTime="88.00" waitingCount="3" stopTime="0.00" timeLoss="120.43" rerouteNo="0" devices="vehroute_49 tripinfo_49 fcd_49" vType="DEFAULT_VEHTYPE" speedFactor="0.85" vaporized=""/>
    <tripinfo id="55" depart="1898.00" departLane="a122_0" departPos="5.10" departSpeed="0.00" departDelay="0.65" arrival="2196.00" arrivalLane="b23_0" arrivalPos="155.55" arrivalSpeed="12.63" duration="298.00" routeLength="2461.27" waitingTime="75.00" waitingCount="4" stopTime="0.00" timeLoss="117.77" rerouteNo="0" devices="vehroute_55 tripinfo_55 fcd_55" vType="DEFAULT_VEHTYPE" speedFactor="1.00" vaporized=""/>
    <tripinfo id="57" depart="1994.00" departLane="a122_0" departPos="5.10" departSpeed="0.00" departDelay="0.31" arrival="2313.00" arrivalLane="b23_0" arrivalPos="155.55" arrivalSpeed="14.92" duration="319.00" routeLength="2459.74" waitingTime="123.00" waitingCount="4" stopTime="0.00" timeLoss="161.51" rerouteNo="0" devices="vehroute_57 tripinfo_57 fcd_57" vType="DEFAULT_VEHTYPE" speedFactor="1.14" vaporized=""/>
    <tripinfo id="56" depart="1979.00" departLane="a122_0" departPos="5.10" departSpeed="0.00" departDelay="0.69" arrival="2326.00" arrivalLane="b23_0" arrivalPos="155.55" arrivalSpeed="12.37" duration="347.00" routeLength="2461.27" waitingTime="109.00" waitingCount="3" stopTime="0.00" timeLoss="145.91" rerouteNo="0" devices="vehroute_56 tripinfo_56 fcd_56" vType="DEFAULT_VEHTYPE" speedFactor="0.90" vaporized=""/>
    <tripinfo id="54" depart="1857.00" departLane="a16_0" departPos="5.10" departSpeed="0.00" departDelay="0.55" arrival="2357.00" arrivalLane="b10_0" arrivalPos="224.30" arrivalSpeed="13.85" duration="500.00" routeLength="3184.15" waitingTime="209.00" waitingCount="6" stopTime="0.00" timeLoss="268.01" rerouteNo="0" devices="vehroute_54 tripinfo_54 fcd_54" vType="DEFAULT_VEHTYPE" speedFactor="1.00" vaporized=""/>
    <tripinfo id="60" depart="2215.00" departLane="a122_0" departPos="5.10" departSpeed="0.00" departDelay="0.21" arrival="2439.00" arrivalLane="b23_0" arrivalPos="155.55" arrivalSpeed="14.65" duration="224.00" routeLength="2459.74" waitingTime="25.00" waitingCount="2" stopTime="0.00" timeLoss="57.15" rerouteNo="0" devices="vehroute_60 tripinfo_60 fcd_60" vType="DEFAULT_VEHTYPE" speedFactor="1.08" vaporized=""/>
    <tripinfo id="61" depart="2231.00" departLane="a122_0" departPos="5.10" departSpeed="0.00" departDelay="0.48" arrival="2441.00" arrivalLane="b23_0" arrivalPos="155.55" arrivalSpeed="14.36" duration="210.00" routeLength="2459.74" waitingTime="16.00" waitingCount="2" stopTime="0.00" timeLoss="48.12" rerouteNo="0" devices="vehroute_61 tripinfo_61 fcd_61" vType="DEFAULT_VEHTYPE" speedFactor="1.12" vaporized=""/>
    <tripinfo id="58" depart="2163.00" departLane="a122_0" departPos="5.10" departSpeed="0.00" departDelay="0.86" arrival="2444.00" arrivalLane="b23_0" arrivalPos="155.55" arrivalSpeed="13.48" duration="281.00" routeLength="2461.27" waitingTime="66.00" waitingCount="4" stopTime="0.00" timeLoss="105.17" rerouteNo="0" devices="vehroute_58 tripinfo_58 fcd_58" vType="DEFAULT_VEHTYPE" speedFactor="1.02" vaporized=""/>
    <tripinfo id="59" depart="2183.00" departLane="a122_0" departPos="5.10" departSpeed="0.00" departDelay="0.49" arrival="2447.00" arrivalLane="b23_0" arrivalPos="155.55" arrivalSpeed="12.87" duration="264.00" routeLength="2456.78" waitingTime="43.00" waitingCount="3" stopTime="0.00" timeLoss="78.72" rerouteNo="0" devices="vehroute_59 tripinfo_59 fcd_59" vType="DEFAULT_VEHTYPE" speedFactor="0.97" vaporized=""/>
    <tripinfo id="63" depart="2248.00" departLane="a122_0" departPos="5.10" departSpeed="0.00" departDelay="1.97" arrival="2565.00" arrivalLane="b23_0" arrivalPos="155.55" arrivalSpeed="12.68" duration="317.00" routeLength="2456.78" waitingTime="97.00" waitingCount="4" stopTime="0.00" timeLoss="135.28" rerouteNo="0" devices="vehroute_63 tripinfo_63 fcd_63" vType="DEFAULT_VEHTYPE" speedFactor="0.99" vaporized=""/>
    <tripinfo id="62" depart="2245.00" departLane="a122_0" departPos="5.10" departSpeed="0.00" departDelay="0.09" arrival="2567.00" arrivalLane="b23_0" arrivalPos="155.55" arrivalSpeed="13.46" duration="322.00" routeLength="2464.23" waitingTime="104.00" waitingCount="3" stopTime="0.00" timeLoss="144.34" rerouteNo="0" devices="vehroute_62 tripinfo_62 fcd_62" vType="DEFAULT_VEHTYPE" speedFactor="1.02" vaporized=""/>
    <tripinfo id="68" depart="2502.00" departLane="a122_0" departPos="5.10" departSpeed="0.00" departDelay="0.18" arrival="2810.00" arrivalLane="b23_0" arrivalPos="155.55" arrivalSpeed="13.73" duration="308.00" routeLength="2459.74" waitingTime="98.00" waitingCount="2" stopTime="0.00" timeLoss="135.40" rerouteNo="0" devices="vehroute_68 tripinfo_68 fcd_68" vType="DEFAULT_VEHTYPE" speedFactor="1.04" vaporized=""/>
    <tripinfo id="67" depart="2492.00" departLane="a122_0" departPos="5.10" departSpeed="0.00" departDelay="0.22" arrival="2818.00" arrivalLane="b23_0" arrivalPos="155.55" arrivalSpeed="11.56" duration="326.00" routeLength="2459.74" waitingTime="100.00" waitingCount="2" stopTime="0.00" timeLoss="128.98" rerouteNo="0" devices="vehroute_67 tripinfo_67 fcd_67" vType="DEFAULT_VEHTYPE" speedFactor="0.91" vaporized=""/>
    <tripinfo id="64" depart="2307.00" departLane="a16_0" departPos="5.10" departSpeed="0.00" departDelay="0.03" arrival="2822.00" arrivalLane="b10_0" arrivalPos="224.30" arrivalSpeed="12.87" duration="515.00" routeLength="3184.15" waitingTime="211.00" waitingCount="7" stopTime="0.00" timeLoss="266.54" rerouteNo="0" devices="vehroute_64 tripinfo_64 fcd_64" vType="DEFAULT_VEHTYPE" speedFactor="0.94" vaporized=""/>
    <tripinfo id="66" depart="2341.00" departLane="a16_0" departPos="5.10" departSpeed="0.00" departDelay="0.28" arrival="2906.00" arrivalLane="b10_0" arrivalPos="224.30" arrivalSpeed="11.92" duration="565.00" routeLength="3184.15" waitingTime="233.00" waitingCount="7" stopTime="0.00" timeLoss="306.48" rerouteNo="0" devices="vehroute_66 tripinfo_66 fcd_66" vType="DEFAULT_VEHTYPE" speedFactor="0.91" vaporized=""/>