<?xml version="1.0" encoding="UTF-8"?>

<!-- generated on 2025-03-21 18:05:09 by Eclipse SUMO sumo Version 1.21.0
<sumoConfiguration xmlns:xsi="http://www.w3.org/2001/XMLSchema-instance" xsi:noNamespaceSchemaLocation="http://sumo.dlr.de/xsd/sumoConfiguration.xsd">

    <input>
        <net-file value="${STATICPATH}/joined_lanes.net.xml"/>
        <route-files value="${SIMULATIONPATH}/generatedRoutes.rou.xml"/>
        <additional-files value="${STATICPATH}/detectors.add.xml,${STATICPATH}/joined_vtypes.add.xml,${STATICPATH}/joined_tls.add.xml"/>
    </input>

    <output>
        <fcd-output value="${SIMULATIONPATH}/fcd.xml"/>
        <queue-output value="${SIMULATIONPATH}/queue.xml"/>
        <summary-output value="${SIMULATIONPATH}/summary.xml"/>
        <tripinfo-output value="${SIMULATIONPATH}/tripinfos.xml"/>
        <vehroute-output value="${SIMULATIONPATH}/vehroute.xml"/>
        <save-state.prefix value="configs\state"/>
    </output>

    <processing>
        <ignore-junction-blocker value="1"/>
        <ignore-route-errors value="true"/>
        <time-to-teleport value="-1"/>
    </processing>

    <report>
        <log value="C:/Users/fabio/Desktop/sumo_log.txt"/>
        <no-step-log value="true"/>
    </report>

    <emissions>
        <phemlight-path value="configs\./PHEMlight/"/>
    </emissions>

    <traci_server>
        <remote-port value="60297"/>
    </traci_server>

</sumoConfiguration>
-->

<tripinfos xmlns:xsi="http://www.w3.org/2001/XMLSchema-instance" xsi:noNamespaceSchemaLocation="http://sumo.dlr.de/xsd/tripinfo_file.xsd">
    <tripinfo id="0" depart="129.00" departLane="a210_0" departPos="5.10" departSpeed="0.00" departDelay="0.94" arrival="398.00" arrivalLane="ba1[1]_2" arrivalPos="0.20" arrivalSpeed="13.11" duration="269.00" routeLength="2602.48" waitingTime="41.00" waitingCount="5" stopTime="0.00" timeLoss="88.91" rerouteNo="0" devices="vehroute_0 tripinfo_0 fcd_0" vType="DEFAULT_VEHTYPE" speedFactor="1.06" vaporized=""/>
    <tripinfo id="1" depart="137.00" departLane="a210_0" departPos="5.10" departSpeed="0.00" departDelay="0.12" arrival="400.00" arrivalLane="ba1[1]_2" arrivalPos="0.20" arrivalSpeed="11.25" duration="263.00" routeLength="2602.48" waitingTime="19.00" waitingCount="3" stopTime="0.00" timeLoss="58.93" rerouteNo="0" devices="vehroute_1 tripinfo_1 fcd_1" vType="DEFAULT_VEHTYPE" speedFactor="0.94" vaporized=""/>
    <tripinfo id="2" depart="154.00" departLane="a210_0" departPos="5.10" departSpeed="0.00" departDelay="0.52" arrival="403.00" arrivalLane="ba1[1]_2" arrivalPos="0.20" arrivalSpeed="11.09" duration="249.00" routeLength="2602.48" waitingTime="8.00" waitingCount="2" stopTime="0.00" timeLoss="60.28" rerouteNo="0" devices="vehroute_2 tripinfo_2 fcd_2" vType="DEFAULT_VEHTYPE" speedFactor="1.01" vaporized=""/>
    <tripinfo id="3" depart="173.00" departLane="a201_0" departPos="5.10" departSpeed="0.00" departDelay="0.81" arrival="484.00" arrivalLane="b2[1][1][1]b_0" arrivalPos="325.74" arrivalSpeed="14.52" duration="311.00" routeLength="2611.01" waitingTime="104.00" waitingCount="3" stopTime="0.00" timeLoss="135.33" rerouteNo="0" devices="vehroute_3 tripinfo_3 fcd_3" vType="DEFAULT_VEHTYPE" speedFactor="1.08" vaporized=""/>
    <tripinfo id="4" depart="233.00" departLane="a210_0" departPos="5.10" departSpeed="0.00" departDelay="0.38" arrival="524.00" arrivalLane="ba1[1]_2" arrivalPos="0.20" arrivalSpeed="12.43" duration="291.00" routeLength="2602.48" waitingTime="62.00" waitingCount="5" stopTime="0.00" timeLoss="105.45" rerouteNo="0" devices="vehroute_4 tripinfo_4 fcd_4" vType="DEFAULT_VEHTYPE" speedFactor="1.03" vaporized=""/>
    <tripinfo id="5" depart="269.00" departLane="a210_0" departPos="5.10" departSpeed="0.00" departDelay="0.33" arrival="526.00" arrivalLane="ba1[1]_2" arrivalPos="0.20" arrivalSpeed="9.97" duration="257.00" routeLength="2602.48" waitingTime="0.00" waitingCount="0" stopTime="0.00" timeLoss="25.90" rerouteNo="0" devices="vehroute_5 tripinfo_5 fcd_5" vType="DEFAULT_VEHTYPE" speedFactor="0.83" vaporized=""/>
    <tripinfo id="6" depart="276.00" departLane="a201_0" departPos="5.10" departSpeed="0.00" departDelay="0.90" arrival="609.00" arrivalLane="b2[1][1][1]b_0" arrivalPos="325.74" arrivalSpeed="13.41" duration="333.00" routeLength="2611.01" waitingTime="117.00" waitingCount="3" stopTime="0.00" timeLoss="151.99" rerouteNo="0" devices="vehroute_6 tripinfo_6 fcd_6" vType="DEFAULT_VEHTYPE" speedFactor="1.05" vaporized=""/>
    <tripinfo id="8" depart="380.00" departLane="a210_0" departPos="5.10" departSpeed="0.00" departDelay="0.68" arrival="650.00" arrivalLane="ba1[1]_2" arrivalPos="0.20" arrivalSpeed="11.20" duration="270.00" routeLength="2602.48" waitingTime="24.00" waitingCount="4" stopTime="0.00" timeLoss="66.69" rerouteNo="0" devices="vehroute_8 tripinfo_8 fcd_8" vType="DEFAULT_VEHTYPE" speedFactor="0.94" vaporized=""/>
    <tripinfo id="12" depart="483.00" departLane="a201_0" departPos="5.10" departSpeed="0.00" departDelay="1.31" arrival="734.00" arrivalLane="b2[1][1][1]b_0" arrivalPos="325.74" arrivalSpeed="13.55" duration="251.00" routeLength="2608.05" waitingTime="34.00" waitingCount="3" stopTime="0.00" timeLoss="69.71" rerouteNo="0" devices="vehroute_12 tripinfo_12 fcd_12" vType="DEFAULT_VEHTYPE" speedFactor="1.05" vaporized=""/>
    <tripinfo id="7" depart="368.00" departLane="a201_0" departPos="5.10" departSpeed="0.00" departDelay="0.26" arrival="743.00" arrivalLane="b2[1][1][1]b_0" arrivalPos="325.74" arrivalSpeed="11.77" duration="375.00" routeLength="2611.01" waitingTime="128.00" waitingCount="3" stopTime="0.00" timeLoss="160.93" rerouteNo="0" devices="vehroute_7 tripinfo_7 fcd_7" vType="DEFAULT_VEHTYPE" speedFactor="0.89" vaporized=""/>
    <tripinfo id="11" depart="480.00" departLane="a201_0" departPos="5.10" departSpeed="0.00" departDelay="0.68" arrival="745.00" arrivalLane="b2[1][1][1]b_0" arrivalPos="325.74" arrivalSpeed="13.17" duration="265.00" routeLength="2611.01" waitingTime="38.00" waitingCount="3" stopTime="0.00" timeLoss="79.20" rerouteNo="0" devices="vehroute_11 tripinfo_11 fcd_11" vType="DEFAULT_VEHTYPE" speedFactor="1.03" vaporized=""/>
    <tripinfo id="9" depart="381.00" departLane="a201_0" departPos="5.10" departSpeed="0.00" departDelay="0.50" arrival="746.00" arrivalLane="b2[1][1][1]b_1" arrivalPos="325.74" arrivalSpeed="10.64" duration="365.00" routeLength="2608.05" waitingTime="110.00" waitingCount="3" stopTime="0.00" timeLoss="143.53" rerouteNo="0" devices="vehroute_9 tripinfo_9 fcd_9" vType="DEFAULT_VEHTYPE" speedFactor="0.86" vaporized=""/>
    <tripinfo id="10" depart="458.00" departLane="a210_0" departPos="5.10" departSpeed="0.00" departDelay="0.08" arrival="767.00" arrivalLane="ba1[1]_2" arrivalPos="0.20" arrivalSpeed="11.43" duration="309.00" routeLength="2602.48" waitingTime="85.00" waitingCount="6" stopTime="0.00" timeLoss="134.24" rerouteNo="0" devices="vehroute_10 tripinfo_10 fcd_10" vType="DEFAULT_VEHTYPE" speedFactor="1.09" vaporized=""/>
    <tripinfo id="17" depart="640.00" departLane="a201_0" departPos="5.10" departSpeed="0.00" departDelay="0.04" arrival="880.00" arrivalLane="b2[1][1][1]b_0" arrivalPos="325.74" arrivalSpeed="12.24" duration="240.00" routeLength="2611.01" waitingTime="15.00" waitingCount="1" stopTime="0.00" timeLoss="37.70" rerouteNo="0" devices="vehroute_17 tripinfo_17 fcd_17" vType="DEFAULT_VEHTYPE" speedFactor="0.94" vaporized=""/>
    <tripinfo id="13" depart="538.00" departLane="a210_0" departPos="5.10" departSpeed="0.00" departDelay="0.74" arrival="891.00" arrivalLane="ba1[1]_2" arrivalPos="0.20" arrivalSpeed="11.89" duration="353.00" routeLength="2602.48" waitingTime="133.00" waitingCount="6" stopTime="0.00" timeLoss="182.89" rerouteNo="0" devices="vehroute_13 tripinfo_13 fcd_13" vType="DEFAULT_VEHTYPE" speedFactor="1.12" vaporized=""/>
    <tripinfo id="14" depart="615.00" departLane="a210_0" departPos="5.10" departSpeed="0.00" departDelay="0.61" arrival="892.00" arrivalLane="ba1[1]_2" arrivalPos="0.20" arrivalSpeed="11.71" duration="277.00" routeLength="2602.48" waitingTime="39.00" waitingCount="4" stopTime="0.00" timeLoss="84.26" rerouteNo="0" devices="vehroute_14 tripinfo_14 fcd_14" vType="DEFAULT_VEHTYPE" speedFactor="0.99" vaporized=""/>
    <tripinfo id="15" depart="626.00" departLane="a210_0" departPos="5.10" departSpeed="0.00" departDelay="0.49" arrival="894.00" arrivalLane="ba1[1]_2" arrivalPos="0.20" arrivalSpeed="10.91" duration="268.00" routeLength="2602.48" waitingTime="22.00" waitingCount="3" stopTime="0.00" timeLoss="61.37" rerouteNo="0" devices="vehroute_15 tripinfo_15 fcd_15" vType="DEFAULT_VEHTYPE" speedFactor="0.93" vaporized=""/>
    <tripinfo id="19" depart="691.00" departLane="a201_0" departPos="5.10" departSpeed="0.00" departDelay="0.58" arrival="972.00" arrivalLane="b2[1][1][1]b_0" arrivalPos="325.74" arrivalSpeed="15.19" duration="281.00" routeLength="2611.01" waitingTime="94.00" waitingCount="1" stopTime="0.00" timeLoss="116.67" rerouteNo="0" devices="vehroute_19 tripinfo_19 fcd_19" vType="DEFAULT_VEHTYPE" speedFactor="1.16" vaporized=""/>
    <tripinfo id="16" depart="637.00" departLane="a210_0" departPos="5.10" departSpeed="0.00" departDelay="0.21" arrival="1024.00" arrivalLane="ba1[1]_2" arrivalPos="0.20" arrivalSpeed="9.65" duration="387.00" routeLength="2602.48" waitingTime="129.00" waitingCount="5" stopTime="0.00" timeLoss="169.16" rerouteNo="0" devices="vehroute_16 tripinfo_16 fcd_16" vType="DEFAULT_VEHTYPE" speedFactor="0.88" vaporized=""/>
    <tripinfo id="18" depart="683.00" departLane="a210_0" departPos="5.10" departSpeed="0.00" departDelay="0.10" arrival="1027.00" arrivalLane="ba1[1]_2" arrivalPos="0.20" arrivalSpeed="10.74" duration="344.00" routeLength="2602.48" waitingTime="85.00" waitingCount="5" stopTime="0.00" timeLoss="139.82" rerouteNo="0" devices="vehroute_18 tripinfo_18 fcd_18" vType="DEFAULT_VEHTYPE" speedFactor="0.94" vaporized=""/>
    <tripinfo id="20" depart="716.00" departLane="a210_0" departPos="5.10" departSpeed="0.00" departDelay="0.12" arrival="1029.00" arrivalLane="ba1[1]_2" arrivalPos="0.20" arrivalSpeed="12.39" duration="313.00" routeLength="2602.48" waitingTime="61.00" waitingCount="5" stopTime="0.00" timeLoss="124.99" rerouteNo="0" devices="vehroute_20 tripinfo_20 fcd_20" vType="DEFAULT_VEHTYPE" speedFactor="1.02" vaporized=""/>
    <tripinfo id="21" depart="763.00" departLane="a210_0" departPos="5.10" departSpeed="0.00" departDelay="0.68" arrival="1031.00" arrivalLane="ba1[1]_2" arrivalPos="0.20" arrivalSpeed="11.03" duration="268.00" routeLength="2602.48" waitingTime="15.00" waitingCount="2" stopTime="0.00" timeLoss="80.02" rerouteNo="0" devices="vehroute_21 tripinfo_21 fcd_21" vType="DEFAULT_VEHTYPE" speedFactor="1.01" vaporized=""/>
    <tripinfo id="22" depart="795.00" departLane="a201_0" departPos="5.10" departSpeed="0.00" departDelay="0.11" arrival="1106.00" arrivalLane="b2[1][1][1]b_0" arrivalPos="325.74" arrivalSpeed="12.78" duration="311.00" routeLength="2611.01" waitingTime="86.00" waitingCount="2" stopTime="0.00" timeLoss="116.06" rerouteNo="0" devices="vehroute_22 tripinfo_22 fcd_22" vType="DEFAULT_VEHTYPE" speedFactor="0.97" vaporized=""/>
    <tripinfo id="23" depart="818.00" departLane="a210_0" departPos="5.10" departSpeed="0.00" departDelay="0.93" arrival="1145.00" arrivalLane="ba1[1]_2" arrivalPos="0.20" arrivalSpeed="10.85" duration="327.00" routeLength="2602.48" waitingTime="67.00" waitingCount="5" stopTime="0.00" timeLoss="111.76" rerouteNo="0" devices="vehroute_23 tripinfo_23 fcd_23" vType="DEFAULT_VEHTYPE" speedFactor="0.89" vaporized=""/>
    <tripinfo id="24" depart="825.00" departLane="a210_0" departPos="5.10" departSpeed="0.00" departDelay="0.98" arrival="1148.00" arrivalLane="ba1[1]_2" arrivalPos="0.20" arrivalSpeed="9.45" duration="323.00" routeLength="2602.48" waitingTime="50.00" waitingCount="3" stopTime="0.00" timeLoss="90.79" rerouteNo="0" devices="vehroute_24 tripinfo_24 fcd_24" vType="DEFAULT_VEHTYPE" speedFactor="0.83" vaporized=""/>
    <tripinfo id="25" depart="838.00" departLane="a210_0" departPos="5.10" departSpeed="0.00" departDelay="0.48" arrival="1150.00" arrivalLane="ba1[1]_2" arrivalPos="0.20" arrivalSpeed="10.83" duration="312.00" routeLength="2602.48" waitingTime="48.00" waitingCount="2" stopTime="0.00" timeLoss="92.26" rerouteNo="0" devices="vehroute_25 tripinfo_25 fcd_25" vType="DEFAULT_VEHTYPE" speedFactor="0.87" vaporized=""/>
    <tripinfo id="26" depart="877.00" departLane="a210_0" departPos="5.10" departSpeed="0.00" departDelay="0.48" arrival="1152.00" arrivalLane="ba1[1]_2" arrivalPos="0.20" arrivalSpeed="10.95" duration="275.00" routeLength="2602.48" waitingTime="13.00" waitingCount="2" stopTime="0.00" timeLoss="66.83" rerouteNo="0" devices="vehroute_26 tripinfo_26 fcd_26" vType="DEFAULT_VEHTYPE" speedFactor="0.92" vaporized=""/>
    <tripinfo id="27" depart="895.00" departLane="a210_0" departPos="5.10" departSpeed="0.00" departDelay="0.11" arrival="1155.00" arrivalLane="ba1[1]_2" arrivalPos="0.20" arrivalSpeed="11.42" duration="260.00" routeLength="2602.48" waitingTime="5.00" waitingCount="1" stopTime="0.00" timeLoss="57.84" rerouteNo="0" devices="vehroute_27 tripinfo_27 fcd_27" vType="DEFAULT_VEHTYPE" speedFactor="0.95" vaporized=""/>
    <tripinfo id="28" depart="912.00" departLane="a210_0" departPos="5.10" departSpeed="0.00" departDelay="0.99" arrival="1158.00" arrivalLane="ba1[1]_2" arrivalPos="0.20" arrivalSpeed="10.60" duration="246.00" routeLength="2602.48" waitingTime="3.00" waitingCount="1" stopTime="0.00" timeLoss="77.57" rerouteNo="0" devices="vehroute_28 tripinfo_28 fcd_28" vType="DEFAULT_VEHTYPE" speedFactor="1.13" vaporized=""/>
    <tripinfo id="31" depart="958.00" departLane="a201_0" departPos="5.10" departSpeed="0.00" departDelay="0.33" arrival="1218.00" arrivalLane="b2[1][1][1]b_0" arrivalPos="325.74" arrivalSpeed="15.54" duration="260.00" routeLength="2611.01" waitingTime="63.00" waitingCount="3" stopTime="0.00" timeLoss="95.18" rerouteNo="0" devices="vehroute_31 tripinfo_31 fcd_31" vType="DEFAULT_VEHTYPE" speedFactor="1.15" vaporized=""/>
    <tripinfo id="32" depart="1006.00" departLane="a201_0" departPos="5.10" departSpeed="0.00" departDelay="0.28" arrival="1228.00" arrivalLane="b2[1][1][1]b_0" arrivalPos="325.74" arrivalSpeed="12.93" duration="222.00" routeLength="2611.01" waitingTime="10.00" waitingCount="1" stopTime="0.00" timeLoss="32.94" rerouteNo="0" devices="vehroute_32 tripinfo_32 fcd_32" vType="DEFAULT_VEHTYPE" speedFactor="1.01" vaporized=""/>
    <tripinfo id="29" depart="956.00" departLane="a210_0" departPos="5.10" departSpeed="0.00" departDelay="0.61" arrival="1265.00" arrivalLane="ba1[1]_2" arrivalPos="0.20" arrivalSpeed="10.18" duration="309.00" routeLength="2602.48" waitingTime="67.00" waitingCount="4" stopTime="0.00" timeLoss="104.76" rerouteNo="0" devices="vehroute_29 tripinfo_29 fcd_29" vType="DEFAULT_VEHTYPE" speedFactor="0.93" vaporized=""/>
    <tripinfo id="30" depart="959.00" departLane="a210_0" departPos="5.10" departSpeed="0.00" departDelay="1.94" arrival="1269.00" arrivalLane="ba1[1]_2" arrivalPos="0.20" arrivalSpeed="12.78" duration="310.00" routeLength="2602.48" waitingTime="62.00" waitingCount="4" stopTime="0.00" timeLoss="147.08" rerouteNo="0" devices="vehroute_30 tripinfo_30 fcd_30" vType="DEFAULT_VEHTYPE" speedFactor="1.18" vaporized=""/>
    <tripinfo id="33" depart="1071.00" departLane="a210_0" departPos="5.10" departSpeed="0.00" departDelay="0.52" arrival="1379.00" arrivalLane="ba1[1]_2" arrivalPos="0.20" arrivalSpeed="11.56" duration="308.00" routeLength="2602.48" waitingTime="102.00" waitingCount="5" stopTime="0.00" timeLoss="145.87" rerouteNo="0" devices="vehroute_33 tripinfo_33 fcd_33" vType="DEFAULT_VEHTYPE" speedFactor="1.17" vaporized=""/>
    <tripinfo id="34" depart="1165.00" departLane="a201_0" departPos="5.10" departSpeed="0.00" departDelay="0.40" arrival="1474.00" arrivalLane="b2[1][1][1]b_0" arrivalPos="325.74" arrivalSpeed="13.52" duration="309.00" routeLength="2611.01" waitingTime="95.00" waitingCount="1" stopTime="0.00" timeLoss="117.47" rerouteNo="0" devices="vehroute_34 tripinfo_34 fcd_34" vType="DEFAULT_VEHTYPE" speedFactor="0.99" vaporized=""/>
    <tripinfo id="35" depart="1276.00" departLane="a210_0" departPos="5.10" departSpeed="0.00" departDelay="0.75" arrival="1633.00" arrivalLane="ba1[1]_2" arrivalPos="0.20" arrivalSpeed="10.06" duration="357.00" routeLength="2602.48" waitingTime="122.00" waitingCount="5" stopTime="0.00" timeLoss="170.07" rerouteNo="0" devices="vehroute_35 tripinfo_35 fcd_35" vType="DEFAULT_VEHTYPE" speedFactor="1.02" vaporized=""/>
    <tripinfo id="36" depart="1279.00" departLane="a210_0" departPos="5.10" departSpeed="0.00" departDelay="1.57" arrival="1635.00" arrivalLane="ba1[1]_2" arrivalPos="0.20" arrivalSpeed="11.55" duration="356.00" routeLength="2602.48" waitingTime="106.00" waitingCount="4" stopTime="0.00" timeLoss="159.62" rerouteNo="0" devices="vehroute_36 tripinfo_36 fcd_36" vType="DEFAULT_VEHTYPE" speedFactor="0.97" vaporized=""/>
    <tripinfo id="37" depart="1338.00" departLane="a210_0" departPos="5.10" departSpeed="0.00" departDelay="0.93" arrival="1637.00" arrivalLane="ba1[1]_2" arrivalPos="0.20" arrivalSpeed="12.01" duration="299.00" routeLength="2602.48" waitingTime="71.00" waitingCount="4" stopTime="0.00" timeLoss="136.77" rerouteNo="0" devices="vehroute_37 tripinfo_37 fcd_37" vType="DEFAULT_VEHTYPE" speedFactor="1.18" vaporized=""/>
    <tripinfo id="40" depart="1394.00" departLane="a210_0" departPos="5.10" departSpeed="0.00" departDelay="0.52" arrival="1639.00" arrivalLane="ba1[1]_2" arrivalPos="0.20" arrivalSpeed="11.93" duration="245.00" routeLength="2602.48" waitingTime="13.00" waitingCount="2" stopTime="0.00" timeLoss="60.29" rerouteNo="0" devices="vehroute_40 tripinfo_40 fcd_40" vType="DEFAULT_VEHTYPE" speedFactor="1.03" vaporized=""/>
    <tripinfo id="38" depart="1391.00" departLane="a201_0" departPos="5.10" departSpeed="0.00" departDelay="0.14" arrival="1713.00" arrivalLane="b2[1][1][1]b_0" arrivalPos="325.74" arrivalSpeed="14.59" duration="322.00" routeLength="2608.05" waitingTime="122.00" waitingCount="2" stopTime="0.00" timeLoss="149.42" rerouteNo="0" devices="vehroute_38 tripinfo_38 fcd_38" vType="DEFAULT_VEHTYPE" speedFactor="1.10" vaporized=""/>
    <tripinfo id="41" depart="1397.00" departLane="a201_0" departPos="5.10" departSpeed="0.00" departDelay="1.66" arrival="1722.00" arrivalLane="b2[1][1][1]b_0" arrivalPos="325.74" arrivalSpeed="12.98" duration="325.00" routeLength="2608.05" waitingTime="93.00" waitingCount="2" stopTime="0.00" timeLoss="125.99" rerouteNo="0" devices="vehroute_41 tripinfo_41 fcd_41" vType="DEFAULT_VEHTYPE" speedFactor="0.96" vaporized=""/>
    <tripinfo id="39" depart="1394.00" departLane="a201_0" departPos="5.10" departSpeed="0.00" departDelay="2.74" arrival="1729.00" arrivalLane="b2[1][1][1]b_0" arrivalPos="325.74" arrivalSpeed="11.53" duration="335.00" routeLength="2608.05" waitingTime="96.00" waitingCount="2" stopTime="0.00" timeLoss="124.34" rerouteNo="0" devices="vehroute_39 tripinfo_39 fcd_39" vType="DEFAULT_VEHTYPE" speedFactor="0.90" vaporized=""/>
    <tripinfo id="42" depart="1413.00" departLane="a210_0" departPos="5.10" departSpeed="0.00" departDelay="0.38" arrival="1751.00" arrivalLane="ba1[1]_2" arrivalPos="0.20" arrivalSpeed="11.65" duration="338.00" routeLength="2602.48" waitingTime="117.00" waitingCount="5" stopTime="0.00" timeLoss="163.22" rerouteNo="0" devices="vehroute_42 tripinfo_42 fcd_42" vType="DEFAULT_VEHTYPE" speedFactor="1.09" vaporized=""/>
    <tripinfo id="44" depart="1484.00" departLane="a210_0" departPos="5.10" departSpeed="0.00" departDelay="0.33" arrival="1753.00" arrivalLane="ba1[1]_2" arrivalPos="0.20" arrivalSpeed="12.41" duration="269.00" routeLength="2602.48" waitingTime="39.00" waitingCount="5" stopTime="0.00" timeLoss="86.41" rerouteNo="0" devices="vehroute_44 tripinfo_44 fcd_44" vType="DEFAULT_VEHTYPE" speedFactor="1.04" vaporized=""/>
    <tripinfo id="45" depart="1507.00" departLane="a210_0" departPos="5.10" departSpeed="0.00" departDelay="0.11" arrival="1757.00" arrivalLane="ba1[1]_2" arrivalPos="0.20" arrivalSpeed="10.96" duration="250.00" routeLength="2602.48" waitingTime="22.00" waitingCount="3" stopTime="0.00" timeLoss="73.55" rerouteNo="0" devices="vehroute_45 tripinfo_45 fcd_45" vType="DEFAULT_VEHTYPE" speedFactor="1.09" vaporized=""/>
    <tripinfo id="43" depart="1458.00" departLane="a201_0" departPos="5.10" departSpeed="0.00" departDelay="0.73" arrival="1839.00" arrivalLane="b2[1][1][1]b_0" arrivalPos="325.74" arrivalSpeed="14.41" duration="381.00" routeLength="2611.01" waitingTime="165.00" waitingCount="3" stopTime="0.00" timeLoss="197.53" rerouteNo="0" devices="vehroute_43 tripinfo_43 fcd_43" vType="DEFAULT_VEHTYPE" speedFactor="1.04" vaporized=""/>
    <tripinfo id="46" depart="1550.00" departLane="a201_0" departPos="5.10" departSpeed="0.00" departDelay="0.79" arrival="1842.00" arrivalLane="b2[1][1][1]b_0" arrivalPos="325.74" arrivalSpeed="13.34" duration="292.00" routeLength="2608.05" waitingTime="72.00" waitingCount="2" stopTime="0.00" timeLoss="101.43" rerouteNo="0" devices="vehroute_46 tripinfo_46 fcd_46" vType="DEFAULT_VEHTYPE" speedFactor="1.00" vaporized=""/>
    <tripinfo id="47" depart="1596.00" departLane="a210_0" departPos="5.10" departSpeed="0.00" departDelay="0.22" arrival="1882.00" arrivalLane="ba1[1]_2" arrivalPos="0.20" arrivalSpeed="10.99" duration="286.00" routeLength="2602.48" waitingTime="33.00" waitingCount="4" stopTime="0.00" timeLoss="74.54" rerouteNo="0" devices="vehroute_47 tripinfo_47 fcd_47" vType="DEFAULT_VEHTYPE" speedFactor="0.90" vaporized=""/>
    <tripinfo id="48" depart="1621.00" departLane="a210_0" departPos="5.10" departSpeed="0.00" departDelay="0.55" arrival="1885.00" arrivalLane="ba1[1]_2" arrivalPos="0.20" arrivalSpeed="10.57" duration="264.00" routeLength="2602.48" waitingTime="6.00" waitingCount="1" stopTime="0.00" timeLoss="45.51" rerouteNo="0" devices="vehroute_48 tripinfo_48 fcd_48" vType="DEFAULT_VEHTYPE" speedFactor="0.88" vaporized=""/>
    <tripinfo id="51" depart="1734.00" departLane="a201_0" departPos="5.10" departSpeed="0.00" departDelay="0.11" arrival="1955.00" arrivalLane="b2[1][1][1]b_0" arrivalPos="325.74" arrivalSpeed="15.36" duration="221.00" routeLength="2611.01" waitingTime="30.00" waitingCount="2" stopTime="0.00" timeLoss="58.77" rerouteNo="0" devices="vehroute_51 tripinfo_51 fcd_51" vType="DEFAULT_VEHTYPE" speedFactor="1.17" vaporized=""/>
    <tripinfo id="49" depart="1623.00" departLane="a201_0" departPos="5.10" departSpeed="0.00" departDelay="0.77" arrival="1977.00" arrivalLane="b2[1][1][1]b_0" arrivalPos="325.74" arrivalSpeed="10.82" duration="354.00" routeLength="2608.05" waitingTime="97.00" waitingCount="4" stopTime="0.00" timeLoss="131.59" rerouteNo="0" devices="vehroute_49 tripinfo_49 fcd_49" vType="DEFAULT_VEHTYPE" speedFactor="0.85" vaporized=""/>
    <tripinfo id="50" depart="1664.00" departLane="a210_0" departPos="5.10" departSpeed="0.00" departDelay="0.99" arrival="2007.00" arrivalLane="ba1[1]_2" arrivalPos="0.20" arrivalSpeed="9.57" duration="343.00" routeLength="2602.48" waitingTime="75.00" waitingCount="5" stopTime="0.00" timeLoss="119.73" rerouteNo="0" devices="vehroute_50 tripinfo_50 fcd_50" vType="DEFAULT_VEHTYPE" speedFactor="0.85" vaporized=""/>
    <tripinfo id="54" depart="1798.00" departLane="a201_0" departPos="5.10" departSpeed="0.00" departDelay="0.40" arrival="2088.00" arrivalLane="b2[1][1][1]b_0" arrivalPos="325.74" arrivalSpeed="13.51" duration="290.00" routeLength="2611.01" waitingTime="68.00" waitingCount="3" stopTime="0.00" timeLoss="100.36" rerouteNo="0" devices="vehroute_54 tripinfo_54 fcd_54" vType="DEFAULT_VEHTYPE" speedFactor="1.00" vaporized=""/>
    <tripinfo id="52" depart="1745.00" departLane="a210_0" departPos="5.10" departSpeed="0.00" departDelay="0.43" arrival="2121.00" arrivalLane="ba1[1]_2" arrivalPos="0.20" arrivalSpeed="10.89" duration="376.00" routeLength="2602.48" waitingTime="143.00" waitingCount="6" stopTime="0.00" timeLoss="189.04" rerouteNo="0" devices="vehroute_52 tripinfo_52 fcd_52" vType="DEFAULT_VEHTYPE" speedFactor="1.02" vaporized=""/>
    <tripinfo id="53" depart="1784.00" departLane="a210_0" departPos="5.10" departSpeed="0.00" departDelay="0.37" arrival="2123.00" arrivalLane="ba1[1]_2" arrivalPos="0.20" arrivalSpeed="13.26" duration="339.00" routeLength="2602.48" waitingTime="117.00" waitingCount="5" stopTime="0.00" timeLoss="164.57" rerouteNo="0" devices="vehroute_53 tripinfo_53 fcd_53" vType="DEFAULT_VEHTYPE" speedFactor="1.10" vaporized=""/>
    <tripinfo id="55" depart="1831.00" departLane="a210_0" departPos="5.10" departSpeed="0.00" departDelay="0.11" arrival="2125.00" arrivalLane="ba1[1]_2" arrivalPos="0.20" arrivalSpeed="11.51" duration="294.00" routeLength="2602.48" waitingTime="52.00" waitingCount="4" stopTime="0.00" timeLoss="102.19" rerouteNo="0" devices="vehroute_55 tripinfo_55 fcd_55" vType="DEFAULT_VEHTYPE" speedFactor="1.00" vaporized=""/>
    <tripinfo id="56" depart="1892.00" departLane="a201_0" departPos="5.10" departSpeed="0.00" departDelay="0.18" arrival="2218.00" arrivalLane="b2[1][1][1]b_0" arrivalPos="325.74" arrivalSpeed="12.05" duration="326.00" routeLength="2611.01" waitingTime="83.00" waitingCount="3" stopTime="0.00" timeLoss="114.91" rerouteNo="0" devices="vehroute_56 tripinfo_56 fcd_56" vType="DEFAULT_VEHTYPE" speedFactor="0.90" vaporized=""/>
    <tripinfo id="57" depart="1979.00" departLane="a210_0" departPos="5.10" departSpeed="0.00" departDelay="0.38" arrival="2243.00" arrivalLane="ba1[1]_2" arrivalPos="0.20" arrivalSpeed="11.21" duration="264.00" routeLength="2602.48" waitingTime="54.00" waitingCount="4" stopTime="0.00" timeLoss="96.83" rerouteNo="0" devices="vehroute_57 tripinfo_57 fcd_57" vType="DEFAULT_VEHTYPE" speedFactor="1.14" vaporized=""/>
    <tripinfo id="58" depart="2032.00" departLane="a210_0" departPos="5.10" departSpeed="0.00" departDelay="0.01" arrival="2368.00" arrivalLane="ba1[1]_2" arrivalPos="0.20" arrivalSpeed="12.06" duration="336.00" routeLength="2602.48" waitingTime="103.00" waitingCount="6" stopTime="0.00" timeLoss="149.41" rerouteNo="0" devices="vehroute_58 tripinfo_58 fcd_58" vType="DEFAULT_VEHTYPE" speedFactor="1.02" vaporized=""/>
    <tripinfo id="59" depart="2096.00" departLane="a210_0" departPos="5.10" departSpeed="0.00" departDelay="0.27" arrival="2370.00" arrivalLane="ba1[1]_2" arrivalPos="0.20" arrivalSpeed="11.59" duration="274.00" routeLength="2602.48" waitingTime="38.00" waitingCount="2" stopTime="0.00" timeLoss="76.49" rerouteNo="0" devices="vehroute_59 tripinfo_59 fcd_59" vType="DEFAULT_VEHTYPE" speedFactor="0.97" vaporized=""/>
    <tripinfo id="61" depart="2225.00" departLane="a201_0" departPos="5.10" departSpeed="0.00" departDelay="0.01" arrival="2452.00" arrivalLane="b2[1][1][1]b_0" arrivalPos="325.74" arrivalSpeed="14.63" duration="227.00" routeLength="2608.05" waitingTime="34.00" waitingCount="2" stopTime="0.00" timeLoss="58.00" rerouteNo="0" devices="vehroute_61 tripinfo_61 fcd_61" vType="DEFAULT_VEHTYPE" speedFactor="1.12" vaporized=""/>
    <tripinfo id="62" depart="2229.00" departLane="a201_0" departPos="5.10" departSpeed="0.00" departDelay="0.79" arrival="2467.00" arrivalLane="b2[1][1][1]b_0" arrivalPos="325.74" arrivalSpeed="13.25" duration="238.00" routeLength="2608.05" waitingTime="25.00" waitingCount="2" stopTime="0.00" timeLoss="51.41" rerouteNo="0" devices="vehroute_62 tripinfo_62 fcd_62" vType="DEFAULT_VEHTYPE" speedFactor="1.02" vaporized=""/>
    <tripinfo id="60" depart="2211.00" departLane="a210_0" departPos="5.10" departSpeed="0.00" departDelay="0.31" arrival="2491.00" arrivalLane="ba1[1]_2" arrivalPos="0.20" arrivalSpeed="12.66" duration="280.00" routeLength="2602.48" waitingTime="54.00" waitingCount="5" stopTime="0.00" timeLoss="103.46" rerouteNo="0" devices="vehroute_60 tripinfo_60 fcd_60" vType="DEFAULT_VEHTYPE" speedFactor="1.08" vaporized=""/>
    <tripinfo id="63" depart="2231.00" departLane="a210_0" departPos="5.10" departSpeed="0.00" departDelay="0.81" arrival="2494.00" arrivalLane="ba1[1]_2" arrivalPos="0.20" arrivalSpeed="11.16" duration="263.00" routeLength="2602.48" waitingTime="31.00" waitingCount="3" stopTime="0.00" timeLoss="69.13" rerouteNo="0" devices="vehroute_63 tripinfo_63 fcd_63" vType="DEFAULT_VEHTYPE" speedFactor="0.99" vaporized=""/>
    <tripinfo id="68" depart="2355.00" departLane="a201_0" departPos="5.10" departSpeed="0.00" departDelay="0.33" arrival="2597.00" arrivalLane="b2[1][1][1]b_0" arrivalPos="325.74" arrivalSpeed="13.35" duration="242.00" routeLength="2608.05" waitingTime="29.00" waitingCount="3" stopTime="0.00" timeLoss="60.23" rerouteNo="0" devices="vehroute_68 tripinfo_68 fcd_68" vType="DEFAULT_VEHTYPE" speedFactor="1.04" vaporized=""/>
    <tripinfo id="64" depart="2266.00" departLane="a210_0" departPos="5.10" departSpeed="0.00" departDelay="0.52" arrival="2618.00" arrivalLane="ba1[1]_2" arrivalPos="0.20" arrivalSpeed="11.63" duration="352.00" routeLength="2602.48" waitingTime="105.00" waitingCount="5" stopTime="0.00" timeLoss="148.78" rerouteNo="0" devices="vehroute_64 tripinfo_64 fcd_64" vType="DEFAULT_VEHTYPE" speedFactor="0.94" vaporized=""/>
    <tripinfo id="65" depart="2280.00" departLane="a210_0" departPos="5.10" departSpeed="0.00" departDelay="0.52" arrival="2621.00" arrivalLane="ba1[1]_2" arrivalPos="0.20" arrivalSpeed="10.55" duration="341.00" routeLength="2602.48" waitingTime="84.00" waitingCount="3" stopTime="0.00" timeLoss="124.54" rerouteNo="0" devices="vehroute_65 tripinfo_65 fcd_65" vType="DEFAULT_VEHTYPE" speedFactor="0.88" vaporized=""/>