<?xml version="1.0" encoding="UTF-8"?>

<!-- generated on 2025-03-21 18:05:09 by Eclipse SUMO sumo Version 1.21.0
<sumoConfiguration xmlns:xsi="http://www.w3.org/2001/XMLSchema-instance" xsi:noNamespaceSchemaLocation="http://sumo.dlr.de/xsd/sumoConfiguration.xsd">

    <input>
        <net-file value="${STATICPATH}/joined_lanes.net.xml"/>
        <route-files value="${SIMULATIONPATH}/generatedRoutes.rou.xml"/>
        <additional-files value="${STATICPATH}/detectors.add.xml,${STATICPATH}/joined_vtypes.add.xml,${STATICPATH}/joined_tls.add.xml"/>
    </input>

    <output>
        <fcd-output value="${SIMULATIONPATH}/fcd.xml"/>
        <queue-output value="${SIMULATIONPATH}/queue.xml"/>
        <summary-output value="${SIMULATIONPATH}/summary.xml"/>
        <tripinfo-output value="${SIMULATIONPATH}/tripinfos.xml"/>
        <vehroute-output value="${SIMULATIONPATH}/vehroute.xml"/>
        <save-state.prefix value="configs\state"/>
    </output>

    <processing>
        <ignore-junction-blocker value="1"/>
        <ignore-route-errors value="true"/>
        <time-to-teleport value="-1"/>
    </processing>

    <report>
        <log value="C:/Users/fabio/Desktop/sumo_log.txt"/>
        <no-step-log value="true"/>
    </report>

    <emissions>
        <phemlight-path value="configs\./PHEMlight/"/>
    </emissions>

    <traci_server>
        <remote-port value="60297"/>
    </traci_server>

</sumoConfiguration>
-->

<routes xmlns:xsi="http://www.w3.org/2001/XMLSchema-instance" xsi:noNamespaceSchemaLocation="http://sumo.dlr.de/xsd/routes_file.xsd">
    <vehicle id="0" depart="129.00" arrival="398.00">
        <route edges="a210 a43[0] a43[1] a115 a110 a185 a92 a90 am91 a88 a187 a191 a17 a71 b38[0] b38[0]a b37 b26 b26.-170 b18 b20+19a ba1[1]"/>
    </vehicle>

    <vehicle id="1" depart="137.00" arrival="400.00">
        <route edges="a210 a43[0] a43[1] a115 a110 a185 a92 a90 am91 a88 a187 a191 a17 a71 b38[0] b38[0]a b37 b26 b26.-170 b18 b20+19a ba1[1]"/>
    </vehicle>

    <vehicle id="2" depart="154.00" arrival="403.00">
        <route edges="a210 a43[0] a43[1] a115 a110 a185 a92 a90 am91 a88 a187 a191 a17 a71 b38[0] b38[0]a b37 b26 b26.-170 b18 b20+19a ba1[1]"/>
    </vehicle>

    <vehicle id="3" depart="173.00" arrival="484.00">
        <route edges="a201 a201c a204a[0] a124 b12 b50[0] b50[1] b50[1]a a181 a18 a17 a71 b2[0] b2[1][0] b2[1][1][0] b2[1][1][1] b2[1][1][1]b"/>
    </vehicle>

    <vehicle id="4" depart="233.00" arrival="524.00">
        <route edges="a210 a43[0] a43[1] a115 a110 a185 a92 a90 am91 a88 a187 a191 a17 a71 b38[0] b38[0]a b37 b26 b26.-170 b18 b20+19a ba1[1]"/>
    </vehicle>

    <vehicle id="5" depart="269.00" arrival="526.00">
        <route edges="a210 a43[0] a43[1] a115 a110 a185 a92 a90 am91 a88 a187 a191 a17 a71 b38[0] b38[0]a b37 b26 b26.-170 b18 b20+19a ba1[1]"/>
    </vehicle>

    <vehicle id="6" depart="276.00" arrival="609.00">
        <route edges="a201 a201c a204a[0] a124 b12 b50[0] b50[1] b50[1]a a181 a18 a17 a71 b2[0] b2[1][0] b2[1][1][0] b2[1][1][1] b2[1][1][1]b"/>
    </vehicle>

    <vehicle id="8" depart="380.00" arrival="650.00">
        <route edges="a210 a43[0] a43[1] a115 a110 a185 a92 a90 am91 a88 a187 a191 a17 a71 b38[0] b38[0]a b37 b26 b26.-170 b18 b20+19a ba1[1]"/>
    </vehicle>

    <vehicle id="12" depart="483.00" arrival="734.00">
        <route edges="a201 a201c a204a[0] a124 b12 b50[0] b50[1] b50[1]a a181 a18 a17 a71 b2[0] b2[1][0] b2[1][1][0] b2[1][1][1] b2[1][1][1]b"/>
    </vehicle>

    <vehicle id="7" depart="368.00" arrival="743.00">
        <route edges="a201 a201c a204a[0] a124 b12 b50[0] b50[1] b50[1]a a181 a18 a17 a71 b2[0] b2[1][0] b2[1][1][0] b2[1][1][1] b2[1][1][1]b"/>
    </vehicle>

    <vehicle id="11" depart="480.00" arrival="745.00">
        <route edges="a201 a201c a204a[0] a124 b12 b50[0] b50[1] b50[1]a a181 a18 a17 a71 b2[0] b2[1][0] b2[1][1][0] b2[1][1][1] b2[1][1][1]b"/>
    </vehicle>

    <vehicle id="9" depart="381.00" arrival="746.00">
        <route edges="a201 a201c a204a[0] a124 b12 b50[0] b50[1] b50[1]a a181 a18 a17 a71 b2[0] b2[1][0] b2[1][1][0] b2[1][1][1] b2[1][1][1]b"/>
    </vehicle>

    <vehicle id="10" depart="458.00" arrival="767.00">
        <route edges="a210 a43[0] a43[1] a115 a110 a185 a92 a90 am91 a88 a187 a191 a17 a71 b38[0] b38[0]a b37 b26 b26.-170 b18 b20+19a ba1[1]"/>
    </vehicle>

    <vehicle id="17" depart="640.00" arrival="880.00">
        <route edges="a201 a201c a204a[0] a124 b12 b50[0] b50[1] b50[1]a a181 a18 a17 a71 b2[0] b2[1][0] b2[1][1][0] b2[1][1][1] b2[1][1][1]b"/>
    </vehicle>

    <vehicle id="13" depart="538.00" arrival="891.00">
        <route edges="a210 a43[0] a43[1] a115 a110 a185 a92 a90 am91 a88 a187 a191 a17 a71 b38[0] b38[0]a b37 b26 b26.-170 b18 b20+19a ba1[1]"/>
    </vehicle>

    <vehicle id="14" depart="615.00" arrival="892.00">
        <route edges="a210 a43[0] a43[1] a115 a110 a185 a92 a90 am91 a88 a187 a191 a17 a71 b38[0] b38[0]a b37 b26 b26.-170 b18 b20+19a ba1[1]"/>
    </vehicle>

    <vehicle id="15" depart="626.00" arrival="894.00">
        <route edges="a210 a43[0] a43[1] a115 a110 a185 a92 a90 am91 a88 a187 a191 a17 a71 b38[0] b38[0]a b37 b26 b26.-170 b18 b20+19a ba1[1]"/>
    </vehicle>

    <vehicle id="19" depart="691.00" arrival="972.00">
        <route edges="a201 a201c a204a[0] a124 b12 b50[0] b50[1] b50[1]a a181 a18 a17 a71 b2[0] b2[1][0] b2[1][1][0] b2[1][1][1] b2[1][1][1]b"/>
    </vehicle>

    <vehicle id="16" depart="637.00" arrival="1024.00">
        <route edges="a210 a43[0] a43[1] a115 a110 a185 a92 a90 am91 a88 a187 a191 a17 a71 b38[0] b38[0]a b37 b26 b26.-170 b18 b20+19a ba1[1]"/>
    </vehicle>

    <vehicle id="18" depart="683.00" arrival="1027.00">
        <route edges="a210 a43[0] a43[1] a115 a110 a185 a92 a90 am91 a88 a187 a191 a17 a71 b38[0] b38[0]a b37 b26 b26.-170 b18 b20+19a ba1[1]"/>
    </vehicle>

    <vehicle id="20" depart="716.00" arrival="1029.00">
        <route edges="a210 a43[0] a43[1] a115 a110 a185 a92 a90 am91 a88 a187 a191 a17 a71 b38[0] b38[0]a b37 b26 b26.-170 b18 b20+19a ba1[1]"/>
    </vehicle>

    <vehicle id="21" depart="763.00" arrival="1031.00">
        <route edges="a210 a43[0] a43[1] a115 a110 a185 a92 a90 am91 a88 a187 a191 a17 a71 b38[0] b38[0]a b37 b26 b26.-170 b18 b20+19a ba1[1]"/>
    </vehicle>

    <vehicle id="22" depart="795.00" arrival="1106.00">
        <route edges="a201 a201c a204a[0] a124 b12 b50[0] b50[1] b50[1]a a181 a18 a17 a71 b2[0] b2[1][0] b2[1][1][0] b2[1][1][1] b2[1][1][1]b"/>
    </vehicle>

    <vehicle id="23" depart="818.00" arrival="1145.00">
        <route edges="a210 a43[0] a43[1] a115 a110 a185 a92 a90 am91 a88 a187 a191 a17 a71 b38[0] b38[0]a b37 b26 b26.-170 b18 b20+19a ba1[1]"/>
    </vehicle>

    <vehicle id="24" depart="825.00" arrival="1148.00">
        <route edges="a210 a43[0] a43[1] a115 a110 a185 a92 a90 am91 a88 a187 a191 a17 a71 b38[0] b38[0]a b37 b26 b26.-170 b18 b20+19a ba1[1]"/>
    </vehicle>

    <vehicle id="25" depart="838.00" arrival="1150.00">
        <route edges="a210 a43[0] a43[1] a115 a110 a185 a92 a90 am91 a88 a187 a191 a17 a71 b38[0] b38[0]a b37 b26 b26.-170 b18 b20+19a ba1[1]"/>
    </vehicle>

    <vehicle id="26" depart="877.00" arrival="1152.00">
        <route edges="a210 a43[0] a43[1] a115 a110 a185 a92 a90 am91 a88 a187 a191 a17 a71 b38[0] b38[0]a b37 b26 b26.-170 b18 b20+19a ba1[1]"/>
    </vehicle>

    <vehicle id="27" depart="895.00" arrival="1155.00">
        <route edges="a210 a43[0] a43[1] a115 a110 a185 a92 a90 am91 a88 a187 a191 a17 a71 b38[0] b38[0]a b37 b26 b26.-170 b18 b20+19a ba1[1]"/>
    </vehicle>

    <vehicle id="28" depart="912.00" arrival="1158.00">
        <route edges="a210 a43[0] a43[1] a115 a110 a185 a92 a90 am91 a88 a187 a191 a17 a71 b38[0] b38[0]a b37 b26 b26.-170 b18 b20+19a ba1[1]"/>
    </vehicle>

    <vehicle id="31" depart="958.00" arrival="1218.00">
        <route edges="a201 a201c a204a[0] a124 b12 b50[0] b50[1] b50[1]a a181 a18 a17 a71 b2[0] b2[1][0] b2[1][1][0] b2[1][1][1] b2[1][1][1]b"/>
    </vehicle>

    <vehicle id="32" depart="1006.00" arrival="1228.00">
        <route edges="a201 a201c a204a[0] a124 b12 b50[0] b50[1] b50[1]a a181 a18 a17 a71 b2[0] b2[1][0] b2[1][1][0] b2[1][1][1] b2[1][1][1]b"/>
    </vehicle>

    <vehicle id="29" depart="956.00" arrival="1265.00">
        <route edges="a210 a43[0] a43[1] a115 a110 a185 a92 a90 am91 a88 a187 a191 a17 a71 b38[0] b38[0]a b37 b26 b26.-170 b18 b20+19a ba1[1]"/>
    </vehicle>

    <vehicle id="30" depart="959.00" arrival="1269.00">
        <route edges="a210 a43[0] a43[1] a115 a110 a185 a92 a90 am91 a88 a187 a191 a17 a71 b38[0] b38[0]a b37 b26 b26.-170 b18 b20+19a ba1[1]"/>
    </vehicle>

    <vehicle id="33" depart="1071.00" arrival="1379.00">
        <route edges="a210 a43[0] a43[1] a115 a110 a185 a92 a90 am91 a88 a187 a191 a17 a71 b38[0] b38[0]a b37 b26 b26.-170 b18 b20+19a ba1[1]"/>
    </vehicle>

    <vehicle id="34" depart="1165.00" arrival="1474.00">
        <route edges="a201 a201c a204a[0] a124 b12 b50[0] b50[1] b50[1]a a181 a18 a17 a71 b2[0] b2[1][0] b2[1][1][0] b2[1][1][1] b2[1][1][1]b"/>
    </vehicle>

    <vehicle id="35" depart="1276.00" arrival="1633.00">
        <route edges="a210 a43[0] a43[1] a115 a110 a185 a92 a90 am91 a88 a187 a191 a17 a71 b38[0] b38[0]a b37 b26 b26.-170 b18 b20+19a ba1[1]"/>
    </vehicle>

    <vehicle id="36" depart="1279.00" arrival="1635.00">
        <route edges="a210 a43[0] a43[1] a115 a110 a185 a92 a90 am91 a88 a187 a191 a17 a71 b38[0] b38[0]a b37 b26 b26.-170 b18 b20+19a ba1[1]"/>
    </vehicle>

    <vehicle id="37" depart="1338.00" arrival="1637.00">
        <route edges="a210 a43[0] a43[1] a115 a110 a185 a92 a90 am91 a88 a187 a191 a17 a71 b38[0] b38[0]a b37 b26 b26.-170 b18 b20+19a ba1[1]"/>
    </vehicle>

    <vehicle id="40" depart="1394.00" arrival="1639.00">
        <route edges="a210 a43[0] a43[1] a115 a110 a185 a92 a90 am91 a88 a187 a191 a17 a71 b38[0] b38[0]a b37 b26 b26.-170 b18 b20+19a ba1[1]"/>
    </vehicle>

    <vehicle id="38" depart="1391.00" arrival="1713.00">
        <route edges="a201 a201c a204a[0] a124 b12 b50[0] b50[1] b50[1]a a181 a18 a17 a71 b2[0] b2[1][0] b2[1][1][0] b2[1][1][1] b2[1][1][1]b"/>
    </vehicle>

    <vehicle id="41" depart="1397.00" arrival="1722.00">
        <route edges="a201 a201c a204a[0] a124 b12 b50[0] b50[1] b50[1]a a181 a18 a17 a71 b2[0] b2[1][0] b2[1][1][0] b2[1][1][1] b2[1][1][1]b"/>
    </vehicle>

    <vehicle id="39" depart="1394.00" arrival="1729.00">
        <route edges="a201 a201c a204a[0] a124 b12 b50[0] b50[1] b50[1]a a181 a18 a17 a71 b2[0] b2[1][0] b2[1][1][0] b2[1][1][1] b2[1][1][1]b"/>
    </vehicle>

    <vehicle id="42" depart="1413.00" arrival="1751.00">
        <route edges="a210 a43[0] a43[1] a115 a110 a185 a92 a90 am91 a88 a187 a191 a17 a71 b38[0] b38[0]a b37 b26 b26.-170 b18 b20+19a ba1[1]"/>
    </vehicle>

    <vehicle id="44" depart="1484.00" arrival="1753.00">
        <route edges="a210 a43[0] a43[1] a115 a110 a185 a92 a90 am91 a88 a187 a191 a17 a71 b38[0] b38[0]a b37 b26 b26.-170 b18 b20+19a ba1[1]"/>
    </vehicle>

    <vehicle id="45" depart="1507.00" arrival="1757.00">
        <route edges="a210 a43[0] a43[1] a115 a110 a185 a92 a90 am91 a88 a187 a191 a17 a71 b38[0] b38[0]a b37 b26 b26.-170 b18 b20+19a ba1[1]"/>
    </vehicle>

    <vehicle id="43" depart="1458.00" arrival="1839.00">
        <route edges="a201 a201c a204a[0] a124 b12 b50[0] b50[1] b50[1]a a181 a18 a17 a71 b2[0] b2[1][0] b2[1][1][0] b2[1][1][1] b2[1][1][1]b"/>
    </vehicle>

    <vehicle id="46" depart="1550.00" arrival="1842.00">
        <route edges="a201 a201c a204a[0] a124 b12 b50[0] b50[1] b50[1]a a181 a18 a17 a71 b2[0] b2[1][0] b2[1][1][0] b2[1][1][1] b2[1][1][1]b"/>
    </vehicle>

    <vehicle id="47" depart="1596.00" arrival="1882.00">
        <route edges="a210 a43[0] a43[1] a115 a110 a185 a92 a90 am91 a88 a187 a191 a17 a71 b38[0] b38[0]a b37 b26 b26.-170 b18 b20+19a ba1[1]"/>
    </vehicle>

    <vehicle id="48" depart="1621.00" arrival="1885.00">
        <route edges="a210 a43[0] a43[1] a115 a110 a185 a92 a90 am91 a88 a187 a191 a17 a71 b38[0] b38[0]a b37 b26 b26.-170 b18 b20+19a ba1[1]"/>
    </vehicle>

    <vehicle id="51" depart="1734.00" arrival="1955.00">
        <route edges="a201 a201c a204a[0] a124 b12 b50[0] b50[1] b50[1]a a181 a18 a17 a71 b2[0] b2[1][0] b2[1][1][0] b2[1][1][1] b2[1][1][1]b"/>
    </vehicle>

    <vehicle id="49" depart="1623.00" arrival="1977.00">
        <route edges="a201 a201c a204a[0] a124 b12 b50[0] b50[1] b50[1]a a181 a18 a17 a71 b2[0] b2[1][0] b2[1][1][0] b2[1][1][1] b2[1][1][1]b"/>
    </vehicle>

    <vehicle id="50" depart="1664.00" arrival="2007.00">
        <route edges="a210 a43[0] a43[1] a115 a110 a185 a92 a90 am91 a88 a187 a191 a17 a71 b38[0] b38[0]a b37 b26 b26.-170 b18 b20+19a ba1[1]"/>
    </vehicle>

    <vehicle id="54" depart="1798.00" arrival="2088.00">
        <route edges="a201 a201c a204a[0] a124 b12 b50[0] b50[1] b50[1]a a181 a18 a17 a71 b2[0] b2[1][0] b2[1][1][0] b2[1][1][1] b2[1][1][1]b"/>
    </vehicle>

    <vehicle id="52" depart="1745.00" arrival="2121.00">
        <route edges="a210 a43[0] a43[1] a115 a110 a185 a92 a90 am91 a88 a187 a191 a17 a71 b38[0] b38[0]a b37 b26 b26.-170 b18 b20+19a ba1[1]"/>
    </vehicle>

    <vehicle id="53" depart="1784.00" arrival="2123.00">
        <route edges="a210 a43[0] a43[1] a115 a110 a185 a92 a90 am91 a88 a187 a191 a17 a71 b38[0] b38[0]a b37 b26 b26.-170 b18 b20+19a ba1[1]"/>
    </vehicle>

    <vehicle id="55" depart="1831.00" arrival="2125.00">
        <route edges="a210 a43[0] a43[1] a115 a110 a185 a92 a90 am91 a88 a187 a191 a17 a71 b38[0] b38[0]a b37 b26 b26.-170 b18 b20+19a ba1[1]"/>
    </vehicle>

    <vehicle id="56" depart="1892.00" arrival="2218.00">
        <route edges="a201 a201c a204a[0] a124 b12 b50[0] b50[1] b50[1]a a181 a18 a17 a71 b2[0] b2[1][0] b2[1][1][0] b2[1][1][1] b2[1][1][1]b"/>
    </vehicle>

    <vehicle id="57" depart="1979.00" arrival="2243.00">
        <route edges="a210 a43[0] a43[1] a115 a110 a185 a92 a90 am91 a88 a187 a191 a17 a71 b38[0] b38[0]a b37 b26 b26.-170 b18 b20+19a ba1[1]"/>
    </vehicle>

    <vehicle id="58" depart="2032.00" arrival="2368.00">
        <route edges="a210 a43[0] a43[1] a115 a110 a185 a92 a90 am91 a88 a187 a191 a17 a71 b38[0] b38[0]a b37 b26 b26.-170 b18 b20+19a ba1[1]"/>
    </vehicle>

    <vehicle id="59" depart="2096.00" arrival="2370.00">
        <route edges="a210 a43[0] a43[1] a115 a110 a185 a92 a90 am91 a88 a187 a191 a17 a71 b38[0] b38[0]a b37 b26 b26.-170 b18 b20+19a ba1[1]"/>
    </vehicle>

    <vehicle id="61" depart="2225.00" arrival="2452.00">
        <route edges="a201 a201c a204a[0] a124 b12 b50[0] b50[1] b50[1]a a181 a18 a17 a71 b2[0] b2[1][0] b2[1][1][0] b2[1][1][1] b2[1][1][1]b"/>
    </vehicle>

    <vehicle id="62" depart="2229.00" arrival="2467.00">
        <route edges="a201 a201c a204a[0] a124 b12 b50[0] b50[1] b50[1]a a181 a18 a17 a71 b2[0] b2[1][0] b2[1][1][0] b2[1][1][1] b2[1][1][1]b"/>
    </vehicle>

    <vehicle id="60" depart="2211.00" arrival="2491.00">
        <route edges="a210 a43[0] a43[1] a115 a110 a185 a92 a90 am91 a88 a187 a191 a17 a71 b38[0] b38[0]a b37 b26 b26.-170 b18 b20+19a ba1[1]"/>
    </vehicle>

    <vehicle id="63" depart="2231.00" arrival="2494.00">
        <route edges="a210 a43[0] a43[1] a115 a110 a185 a92 a90 am91 a88 a187 a191 a17 a71 b38[0] b38[0]a b37 b26 b26.-170 b18 b20+19a ba1[1]"/>
    </vehicle>

    <vehicle id="68" depart="2355.00" arrival="2597.00">
        <route edges="a201 a201c a204a[0] a124 b12 b50[0] b50[1] b50[1]a a181 a18 a17 a71 b2[0] b2[1][0] b2[1][1][0] b2[1][1][1] b2[1][1][1]b"/>
    </vehicle>

    <vehicle id="64" depart="2266.00" arrival="2618.00">
        <route edges="a210 a43[0] a43[1] a115 a110 a185 a92 a90 am91 a88 a187 a191 a17 a71 b38[0] b38[0]a b37 b26 b26.-170 b18 b20+19a ba1[1]"/>
    </vehicle>

    <vehicle id="65" depart="2280.00" arrival="2621.00">
        <route edges="a210 a43[0] a43[1] a115 a110 a185 a92 a90 am91 a88 a187 a191 a17 a71 b38[0] b38[0]a b37 b26 b26.-170 b18 b20+19a ba1[1]"/>
    </vehicle>

    <vehicle id="70" depart="2372.00" arrival="2701.00">
        <route edges="a201 a201c a204a[0] a124 b12 b50[0] b50[1] b50[1]a a181 a18 a17 a71 b2[0] b2[1][0] b2[1][1][0] b2[1][1][1] b2[1][1][1]b"/>
    </vehicle>

    <vehicle id="66" depart="2326.00" arrival="2742.00">
        <route edges="a210 a43[0] a43[1] a115 a110 a185 a92 a90 am91 a88 a187 a191 a17 a71 b38[0] b38[0]a b37 b26 b26.-170 b18 b20+19a ba1[1]"/>
    </vehicle>

    <vehicle id="67" depart="2347.00" arrival="2744.00">
        <route edges="a210 a43[0] a43[1] a115 a110 a185 a92 a90 am91 a88 a187 a191 a17 a71 b38[0] b38[0]a b37 b26 b26.-170 b18 b20+19a ba1[1]"/>
    </vehicle>

    <vehicle id="69" depart="2361.00" arrival="2747.00">
        <route edges="a210 a43[0] a43[1] a115 a110 a185 a92 a90 am91 a88 a187 a191 a17 a71 b38[0] b38[0]a b37 b26 b26.-170 b18 b20+19a ba1[1]"/>
    </vehicle>

    <vehicle id="71" depart="2373.00" arrival="2749.00">
        <route edges="a210 a43[0] a43[1] a115 a110 a185 a92 a90 am91 a88 a187 a191 a17 a71 b38[0] b38[0]a b37 b26 b26.-170 b18 b20+19a ba1[1]"/>
    </vehicle>

    <vehicle id="72" depart="2452.00" arrival="2751.00">
        <route edges="a210 a43[0] a43[1] a115 a110 a185 a92 a90 am91 a88 a187 a191 a17 a71 b38[0] b38[0]a b37 b26 b26.-170 b18 b20+19a ba1[1]"/>
    </vehicle>

    <vehicle id="73" depart="2490.00" arrival="2754.00">
        <route edges="a210 a43[0] a43[1] a115 a110 a185 a92 a90 am91 a88 a187 a191 a17 a71 b38[0] b38[0]a b37 b26 b26.-170 b18 b20+19a ba1[1]"/>
    </vehicle>

    <vehicle id="74" depart="2608.00" arrival="2827.00">
        <route edges="a201 a201c a204a[0] a124 b12 b50[0] b50[1] b50[1]a a181 a18 a17 a71 b2[0] b2[1][0] b2[1][1][0] b2[1][1][1] b2[1][1][1]b"/>
    </vehicle>

    <vehicle id="75" depart="2687.00" arrival="2985.00">
        <route edges="a210 a43[0] a43[1] a115 a110 a185 a92 a90 am91 a88 a187 a191 a17 a71 b38[0] b38[0]a b37 b26 b26.-170 b18 b20+19a ba1[1]"/>
    </vehicle>

    <vehicle id="76" depart="2716.00" arrival="2987.00">
        <route edges="a210 a43[0] a43[1] a115 a110 a185 a92 a90 am91 a88 a187 a191 a17 a71 b38[0] b38[0]a b37 b26 b26.-170 b18 b20+19a ba1[1]"/>
    </vehicle>

    <vehicle id="77" depart="2813.00" arrival="3073.00">
        <route edges="a201 a201c a204a[0] a124 b12 b50[0] b50[1] b50[1]a a181 a18 a17 a71 b2[0] b2[1][0] b2[1][1][0] b2[1][1][1] b2[1][1][1]b"/>
    </vehicle>

    <vehicle id="78" depart="2818.00" arrival="3108.00">
        <route edges="a210 a43[0] a43[1] a115 a110 a185 a92 a90 am91 a88 a187 a191 a17 a71 b38[0] b38[0]a b37 b26 b26.-170 b18 b20+19a ba1[1]"/>
    </vehicle>

    <vehicle id="79" depart="2822.00" arrival="3109.00">
        <route edges="a210 a43[0] a43[1] a115 a110 a185 a92 a90 am91 a88 a187 a191 a17 a71 b38[0] b38[0]a b37 b26 b26.-170 b18 b20+19a ba1[1]"/>
    </vehicle>

    <vehicle id="85" depart="2971.00" arrival="3195.00">
        <route edges="a201 a201c a204a[0] a124 b12 b50[0] b50[1] b50[1]a a181 a18 a17 a71 b2[0] b2[1][0] b2[1][1][0] b2[1][1][1] b2[1][1][1]b"/>
    </vehicle>

    <vehicle id="80" depart="2846.00" arrival="3230.00">
        <route edges="a210 a43[0] a43[1] a115 a110 a185 a92 a90 am91 a88 a187 a191 a17 a71 b38[0] b38[0]a b37 b26 b26.-170 b18 b20+19a ba1[1]"/>
    </vehicle>

    <vehicle id="81" depart="2852.00" arrival="3233.00">
        <route edges="a210 a43[0] a43[1] a115 a110 a185 a92 a90 am91 a88 a187 a191 a17 a71 b38[0] b38[0]a b37 b26 b26.-170 b18 b20+19a ba1[1]"/>
    </vehicle>

    <vehicle id="82" depart="2888.00" arrival="3236.00">
        <route edges="a210 a43[0] a43[1] a115 a110 a185 a92 a90 am91 a88 a187 a191 a17 a71 b38[0] b38[0]a b37 b26 b26.-170 b18 b20+19a ba1[1]"/>
    </vehicle>

    <vehicle id="83" depart="2912.00" arrival="3238.00">
        <route edges="a210 a43[0] a43[1] a115 a110 a185 a92 a90 am91 a88 a187 a191 a17 a71 b38[0] b38[0]a b37 b26 b26.-170 b18 b20+19a ba1[1]"/>
    </vehicle>

    <vehicle id="84" depart="2919.00" arrival="3241.00">
        <route edges="a210 a43[0] a43[1] a115 a110 a185 a92 a90 am91 a88 a187 a191 a17 a71 b38[0] b38[0]a b37 b26 b26.-170 b18 b20+19a ba1[1]"/>
    </vehicle>

    <vehicle id="86" depart="3004.00" arrival="3353.00">
        <route edges="a210 a43[0] a43[1] a115 a110 a185 a92 a90 am91 a88 a187 a191 a17 a71 b38[0] b38[0]a b37 b26 b26.-170 b18 b20+19a ba1[1]"/>
    </vehicle>

    <vehicle id="87" depart="3053.00" arrival="3355.00">
        <route edges="a210 a43[0] a43[1] a115 a110 a185 a92 a90 am91 a88 a187 a191 a17 a71 b38[0] b38[0]a b37 b26 b26.-170 b18 b20+19a ba1[1]"/>
    </vehicle>

    <vehicle id="88" depart="3095.00" arrival="3440.00">
        <route edges="a201 a201c a204a[0] a124 b12 b50[0] b50[1] b50[1]a a181 a18 a17 a71 b2[0] b2[1][0] b2[1][1][0] b2[1][1][1] b2[1][1][1]b"/>
    </vehicle>

    <vehicle id="90" depart="3177.00" arrival="3440.00">
        <route edges="a201 a201c a204a[0] a124 b12 b50[0] b50[1] b50[1]a a181 a18 a17 a71 b2[0] b2[1][0] b2[1][1][0] b2[1][1][1] b2[1][1][1]b"/>
    </vehicle>

    <vehicle id="89" depart="3113.00" arrival="3476.00">
        <route edges="a210 a43[0] a43[1] a115 a110 a185 a92 a90 am91 a88 a187 a191 a17 a71 b38[0] b38[0]a b37 b26 b26.-170 b18 b20+19a ba1[1]"/>
    </vehicle>

    <vehicle id="91" depart="3202.00" arrival="3480.00">
        <route edges="a210 a43[0] a43[1] a115 a110 a185 a92 a90 am91 a88 a187 a191 a17 a71 b38[0] b38[0]a b37 b26 b26.-170 b18 b20+19a ba1[1]"/>
    </vehicle>

    <vehicle id="94" depart="3396.00" arrival="3694.00">
        <route edges="a201 a201c a204a[0] a124 b12 b50[0] b50[1] b50[1]a a181 a18 a17 a71 b2[0] b2[1][0] b2[1][1][0] b2[1][1][1] b2[1][1][1]b"/>
    </vehicle>

    <vehicle id="95" depart="3443.00" arrival="3695.00">
        <route edges="a201 a201c a204a[0] a124 b12 b50[0] b50[1] b50[1]a a181 a18 a17 a71 b2[0] b2[1][0] b2[1][1][0] b2[1][1][1] b2[1][1][1]b"/>
    </vehicle>

    <vehicle id="93" depart="3393.00" arrival="3703.00">
        <route edges="a201 a201c a204a[0] a124 b12 b50[0] b50[1] b50[1]a a181 a18 a17 a71 b2[0] b2[1][0] b2[1][1][0] b2[1][1][1] b2[1][1][1]b"/>
    </vehicle>

    <vehicle id="92" depart="3350.00" arrival="3730.00">
        <route edges="a210 a43[0] a43[1] a115 a110 a185 a92 a90 am91 a88 a187 a191 a17 a71 b38[0] b38[0]a b37 b26 b26.-170 b18 b20+19a ba1[1]"/>
    </vehicle>

    <vehicle id="96" depart="3470.00" arrival="3732.00">
        <route edges="a210 a43[0] a43[1] a115 a110 a185 a92 a90 am91 a88 a187 a191 a17 a71 b38[0] b38[0]a b37 b26 b26.-170 b18 b20+19a ba1[1]"/>
    </vehicle>

    <vehicle id="98" depart="3558.00" arrival="3804.00">
        <route edges="a201 a201c a204a[0] a124 b12 b50[0] b50[1] b50[1]a a181 a18 a17 a71 b2[0] b2[1][0] b2[1][1][0] b2[1][1][1] b2[1][1][1]b"/>
    </vehicle>

    <vehicle id="97" depart="3495.00" arrival="3851.00">
        <route edges="a210 a43[0] a43[1] a115 a110 a185 a92 a90 am91 a88 a187 a191 a17 a71 b38[0] b38[0]a b37 b26 b26.-170 b18 b20+19a ba1[1]"/>
    </vehicle>

    <vehicle id="99" depart="3570.00" arrival="3854.00">
        <route edges="a210 a43[0] a43[1] a115 a110 a185 a92 a90 am91 a88 a187 a191 a17 a71 b38[0] b38[0]a b37 b26 b26.-170 b18 b20+19a ba1[1]"/>
    </vehicle>

</routes>
