<?xml version="1.0" encoding="UTF-8"?>

<!-- generated on 2025-03-21 17:16:09 by Eclipse SUMO sumo Version 1.21.0
<sumoConfiguration xmlns:xsi="http://www.w3.org/2001/XMLSchema-instance" xsi:noNamespaceSchemaLocation="http://sumo.dlr.de/xsd/sumoConfiguration.xsd">

    <input>
        <net-file value="${STATICPATH}/joined_lanes.net.xml"/>
        <route-files value="${SIMULATIONPATH}/generatedRoutes.rou.xml"/>
        <additional-files value="${STATICPATH}/detectors.add.xml,${STATICPATH}/joined_vtypes.add.xml,${STATICPATH}/joined_tls.add.xml"/>
    </input>

    <output>
        <fcd-output value="${SIMULATIONPATH}/fcd.xml"/>
        <queue-output value="${SIMULATIONPATH}/queue.xml"/>
        <summary-output value="${SIMULATIONPATH}/summary.xml"/>
        <tripinfo-output value="${SIMULATIONPATH}/tripinfos.xml"/>
        <vehroute-output value="${SIMULATIONPATH}/vehroute.xml"/>
        <save-state.prefix value="configs\state"/>
    </output>

    <processing>
        <ignore-junction-blocker value="1"/>
        <ignore-route-errors value="true"/>
        <time-to-teleport value="-1"/>
    </processing>

    <report>
        <log value="C:/Users/fabio/Desktop/sumo_log.txt"/>
        <no-step-log value="true"/>
    </report>

    <emissions>
        <phemlight-path value="configs\./PHEMlight/"/>
    </emissions>

    <traci_server>
        <remote-port value="60010"/>
    </traci_server>

</sumoConfiguration>
-->

<fcd-export xmlns:xsi="http://www.w3.org/2001/XMLSchema-instance" xsi:noNamespaceSchemaLocation="http://sumo.dlr.de/xsd/fcd_file.xsd">
    <timestep time="0.00"/>
    <timestep time="1.00"/>
    <timestep time="2.00"/>
    <timestep time="3.00"/>
    <timestep time="4.00"/>
    <timestep time="5.00"/>
    <timestep time="6.00"/>
    <timestep time="7.00"/>
    <timestep time="8.00"/>
    <timestep time="9.00"/>
    <timestep time="10.00"/>
    <timestep time="11.00"/>
    <timestep time="12.00"/>
    <timestep time="13.00"/>
    <timestep time="14.00"/>
    <timestep time="15.00"/>
    <timestep time="16.00"/>
    <timestep time="17.00"/>
    <timestep time="18.00"/>
    <timestep time="19.00"/>
    <timestep time="20.00"/>
    <timestep time="21.00"/>
    <timestep time="22.00"/>
    <timestep time="23.00"/>
    <timestep time="24.00"/>
    <timestep time="25.00"/>
    <timestep time="26.00"/>
    <timestep time="27.00"/>
    <timestep time="28.00"/>
    <timestep time="29.00"/>
    <timestep time="30.00"/>
    <timestep time="31.00"/>
    <timestep time="32.00"/>
    <timestep time="33.00"/>
    <timestep time="34.00"/>
    <timestep time="35.00"/>
    <timestep time="36.00"/>
    <timestep time="37.00"/>
    <timestep time="38.00"/>
    <timestep time="39.00"/>
    <timestep time="40.00"/>
    <timestep time="41.00"/>
    <timestep time="42.00"/>
    <timestep time="43.00"/>
    <timestep time="44.00"/>
    <timestep time="45.00"/>
    <timestep time="46.00"/>
    <timestep time="47.00"/>
    <timestep time="48.00"/>
    <timestep time="49.00"/>
    <timestep time="50.00"/>
    <timestep time="51.00"/>
    <timestep time="52.00"/>
    <timestep time="53.00"/>
    <timestep time="54.00"/>
    <timestep time="55.00"/>
    <timestep time="56.00"/>
    <timestep time="57.00"/>
    <timestep time="58.00"/>
    <timestep time="59.00"/>
    <timestep time="60.00"/>
    <timestep time="61.00"/>
    <timestep time="62.00"/>
    <timestep time="63.00"/>
    <timestep time="64.00"/>
    <timestep time="65.00"/>
    <timestep time="66.00"/>
    <timestep time="67.00"/>
    <timestep time="68.00"/>
    <timestep time="69.00"/>
    <timestep time="70.00"/>
    <timestep time="71.00"/>
    <timestep time="72.00"/>
    <timestep time="73.00"/>
    <timestep time="74.00"/>
    <timestep time="75.00"/>
    <timestep time="76.00"/>
    <timestep time="77.00"/>
    <timestep time="78.00"/>
    <timestep time="79.00"/>
    <timestep time="80.00"/>
    <timestep time="81.00"/>
    <timestep time="82.00"/>
    <timestep time="83.00"/>
    <timestep time="84.00"/>
    <timestep time="85.00"/>
    <timestep time="86.00"/>
    <timestep time="87.00"/>
    <timestep time="88.00"/>
    <timestep time="89.00"/>
    <timestep time="90.00"/>
    <timestep time="91.00"/>
    <timestep time="92.00"/>
    <timestep time="93.00"/>
    <timestep time="94.00"/>
    <timestep time="95.00"/>
    <timestep time="96.00"/>
    <timestep time="97.00"/>
    <timestep time="98.00"/>
    <timestep time="99.00"/>
    <timestep time="100.00"/>
    <timestep time="101.00"/>
    <timestep time="102.00"/>
    <timestep time="103.00"/>
    <timestep time="104.00"/>
    <timestep time="105.00"/>
    <timestep time="106.00"/>
    <timestep time="107.00"/>
    <timestep time="108.00"/>
    <timestep time="109.00"/>
    <timestep time="110.00"/>
    <timestep time="111.00"/>
    <timestep time="112.00"/>
    <timestep time="113.00"/>
    <timestep time="114.00"/>
    <timestep time="115.00"/>
    <timestep time="116.00"/>
    <timestep time="117.00"/>
    <timestep time="118.00"/>
    <timestep time="119.00"/>
    <timestep time="120.00"/>
    <timestep time="121.00"/>
    <timestep time="122.00"/>
    <timestep time="123.00"/>
    <timestep time="124.00"/>
    <timestep time="125.00"/>
    <timestep time="126.00"/>
    <timestep time="127.00"/>
    <timestep time="128.00"/>
    <timestep time="129.00">
        <vehicle id="0" x="1229.22" y="625.29" angle="80.56" type="DEFAULT_VEHTYPE" speed="0.00" pos="4.30" lane="a87[0]_0" slope="0.00"/>
    </timestep>
    <timestep time="130.00">
        <vehicle id="0" x="1230.70" y="625.54" angle="80.34" type="DEFAULT_VEHTYPE" speed="1.58" pos="1.58" lane=":a59_0_1" slope="0.00"/>
    </timestep>
    <timestep time="131.00">
        <vehicle id="0" x="1234.08" y="626.12" angle="80.28" type="DEFAULT_VEHTYPE" speed="3.60" pos="5.18" lane=":a59_0_1" slope="0.00"/>
    </timestep>
    <timestep time="132.00">
        <vehicle id="0" x="1239.28" y="627.02" angle="80.22" type="DEFAULT_VEHTYPE" speed="5.43" pos="2.21" lane="a20001+87[1][0]_1" slope="0.00"/>
    </timestep>
    <timestep time="133.00">
        <vehicle id="0" x="1246.32" y="628.24" angle="80.14" type="DEFAULT_VEHTYPE" speed="7.15" pos="9.36" lane="a20001+87[1][0]_1" slope="0.00"/>
    </timestep>
    <timestep time="134.00">
        <vehicle id="0" x="1255.53" y="629.84" angle="80.14" type="DEFAULT_VEHTYPE" speed="9.34" pos="18.70" lane="a20001+87[1][0]_1" slope="0.00"/>
    </timestep>
    <timestep time="135.00">
        <vehicle id="0" x="1266.16" y="631.69" angle="80.14" type="DEFAULT_VEHTYPE" speed="10.79" pos="0.05" lane=":a60_0_0" slope="0.00"/>
    </timestep>
    <timestep time="136.00">
        <vehicle id="0" x="1278.10" y="633.86" angle="79.38" type="DEFAULT_VEHTYPE" speed="12.13" pos="3.07" lane=":a61_4_0" slope="0.00"/>
    </timestep>
    <timestep time="137.00">
        <vehicle id="0" x="1291.32" y="636.50" angle="78.03" type="DEFAULT_VEHTYPE" speed="13.48" pos="4.89" lane="am90_0" slope="0.00"/>
        <vehicle id="1" x="1229.22" y="625.29" angle="80.56" type="DEFAULT_VEHTYPE" speed="0.00" pos="4.30" lane="a87[0]_0" slope="0.00"/>
    </timestep>
    <timestep time="138.00">
        <vehicle id="0" x="1302.00" y="638.77" angle="78.00" type="DEFAULT_VEHTYPE" speed="10.92" pos="15.81" lane="am90_0" slope="0.00"/>
        <vehicle id="1" x="1231.45" y="625.67" angle="80.32" type="DEFAULT_VEHTYPE" speed="2.38" pos="2.38" lane=":a59_0_1" slope="0.00"/>
    </timestep>
    <timestep time="139.00">
        <vehicle id="0" x="1308.28" y="640.10" angle="78.00" type="DEFAULT_VEHTYPE" speed="6.42" pos="22.23" lane="am90_0" slope="0.00"/>
        <vehicle id="1" x="1235.87" y="626.43" angle="80.28" type="DEFAULT_VEHTYPE" speed="4.72" pos="7.09" lane=":a59_0_1" slope="0.00"/>
    </timestep>
    <timestep time="140.00">
        <vehicle id="0" x="1313.02" y="644.64" angle="35.52" type="DEFAULT_VEHTYPE" speed="7.09" pos="3.70" lane=":a62_7_0" slope="0.00"/>
        <vehicle id="1" x="1242.94" y="627.65" angle="80.14" type="DEFAULT_VEHTYPE" speed="7.23" pos="5.93" lane="a20001+87[1][0]_1" slope="0.00"/>
    </timestep>
    <timestep time="141.00">
        <vehicle id="0" x="1313.64" y="651.89" angle="2.18" type="DEFAULT_VEHTYPE" speed="7.31" pos="2.27" lane="a171_0" slope="0.00"/>
        <vehicle id="1" x="1251.46" y="629.14" angle="80.14" type="DEFAULT_VEHTYPE" speed="8.65" pos="14.58" lane="a20001+87[1][0]_1" slope="0.00"/>
    </timestep>
    <timestep time="142.00">
        <vehicle id="0" x="1313.98" y="660.82" angle="2.95" type="DEFAULT_VEHTYPE" speed="8.94" pos="11.21" lane="a171_0" slope="0.00"/>
        <vehicle id="1" x="1262.52" y="631.06" angle="80.14" type="DEFAULT_VEHTYPE" speed="11.22" pos="25.80" lane="a20001+87[1][0]_1" slope="0.00"/>
    </timestep>
    <timestep time="143.00">
        <vehicle id="0" x="1314.54" y="671.70" angle="2.95" type="DEFAULT_VEHTYPE" speed="10.89" pos="22.10" lane="a171_0" slope="0.00"/>
        <vehicle id="1" x="1275.28" y="633.32" angle="79.83" type="DEFAULT_VEHTYPE" speed="12.96" pos="0.21" lane=":a61_4_0" slope="0.00"/>
    </timestep>
    <timestep time="144.00">
        <vehicle id="0" x="1315.21" y="684.68" angle="2.95" type="DEFAULT_VEHTYPE" speed="13.01" pos="35.10" lane="a171_0" slope="0.00"/>
        <vehicle id="1" x="1287.01" y="635.58" angle="79.01" type="DEFAULT_VEHTYPE" speed="11.94" pos="0.49" lane="am90_0" slope="0.00"/>
    </timestep>
    <timestep time="145.00">
        <vehicle id="0" x="1315.92" y="698.48" angle="2.95" type="DEFAULT_VEHTYPE" speed="13.82" pos="48.92" lane="a171_0" slope="0.00"/>
        <vehicle id="1" x="1298.67" y="638.06" angle="78.00" type="DEFAULT_VEHTYPE" speed="11.92" pos="12.41" lane="am90_0" slope="0.00"/>
    </timestep>
    <timestep time="146.00">
        <vehicle id="0" x="1316.66" y="712.91" angle="2.95" type="DEFAULT_VEHTYPE" speed="14.44" pos="63.37" lane="a171_0" slope="0.00"/>
        <vehicle id="1" x="1306.37" y="639.70" angle="78.00" type="DEFAULT_VEHTYPE" speed="7.87" pos="20.28" lane="am90_0" slope="0.00"/>
    </timestep>
    <timestep time="147.00">
        <vehicle id="0" x="1317.35" y="726.32" angle="2.95" type="DEFAULT_VEHTYPE" speed="13.42" pos="76.79" lane="a171_0" slope="0.00"/>
        <vehicle id="1" x="1310.86" y="641.06" angle="73.38" type="DEFAULT_VEHTYPE" speed="4.73" pos="1.57" lane=":a62_4_0" slope="0.00"/>
    </timestep>
    <timestep time="148.00">
        <vehicle id="0" x="1318.05" y="739.73" angle="2.95" type="DEFAULT_VEHTYPE" speed="13.43" pos="90.22" lane="a171_0" slope="0.00"/>
        <vehicle id="1" x="1313.43" y="646.68" angle="19.12" type="DEFAULT_VEHTYPE" speed="6.40" pos="5.79" lane=":a62_7_0" slope="0.00"/>
    </timestep>
    <timestep time="149.00">
        <vehicle id="0" x="1318.79" y="754.14" angle="2.95" type="DEFAULT_VEHTYPE" speed="14.42" pos="104.65" lane="a171_0" slope="0.00"/>
        <vehicle id="1" x="1313.64" y="653.76" angle="0.69" type="DEFAULT_VEHTYPE" speed="7.09" pos="4.14" lane="a171_0" slope="0.00"/>
    </timestep>
    <timestep time="150.00">
        <vehicle id="0" x="1319.50" y="768.00" angle="2.95" type="DEFAULT_VEHTYPE" speed="13.88" pos="118.53" lane="a171_0" slope="0.00"/>
        <vehicle id="1" x="1314.08" y="662.83" angle="2.95" type="DEFAULT_VEHTYPE" speed="9.08" pos="13.22" lane="a171_0" slope="0.00"/>
    </timestep>
    <timestep time="151.00">
        <vehicle id="0" x="1320.25" y="782.40" angle="2.95" type="DEFAULT_VEHTYPE" speed="14.43" pos="132.95" lane="a171_0" slope="0.00"/>
        <vehicle id="1" x="1314.67" y="674.29" angle="2.95" type="DEFAULT_VEHTYPE" speed="11.48" pos="24.70" lane="a171_0" slope="0.00"/>
    </timestep>
    <timestep time="152.00">
        <vehicle id="0" x="1321.00" y="797.03" angle="2.95" type="DEFAULT_VEHTYPE" speed="14.65" pos="147.60" lane="a171_0" slope="0.00"/>
        <vehicle id="1" x="1315.28" y="686.12" angle="2.95" type="DEFAULT_VEHTYPE" speed="11.84" pos="36.54" lane="a171_0" slope="0.00"/>
    </timestep>
    <timestep time="153.00">
        <vehicle id="0" x="1321.64" y="809.52" angle="2.95" type="DEFAULT_VEHTYPE" speed="12.50" pos="160.10" lane="a171_0" slope="0.00"/>
        <vehicle id="1" x="1315.90" y="698.07" angle="2.95" type="DEFAULT_VEHTYPE" speed="11.97" pos="48.51" lane="a171_0" slope="0.00"/>
    </timestep>
    <timestep time="154.00">
        <vehicle id="0" x="1322.05" y="817.51" angle="2.95" type="DEFAULT_VEHTYPE" speed="8.00" pos="168.11" lane="a171_0" slope="0.00"/>
        <vehicle id="1" x="1316.51" y="709.94" angle="2.95" type="DEFAULT_VEHTYPE" speed="11.89" pos="60.39" lane="a171_0" slope="0.00"/>
        <vehicle id="2" x="2108.49" y="1334.81" angle="233.59" type="DEFAULT_VEHTYPE" speed="0.00" pos="5.10" lane="a203[0]_0" slope="0.00"/>
    </timestep>
    <timestep time="155.00">
        <vehicle id="0" x="1322.24" y="821.01" angle="2.95" type="DEFAULT_VEHTYPE" speed="3.50" pos="171.61" lane="a171_0" slope="0.00"/>
        <vehicle id="1" x="1317.12" y="721.70" angle="2.95" type="DEFAULT_VEHTYPE" speed="11.77" pos="72.17" lane="a171_0" slope="0.00"/>
        <vehicle id="2" x="2106.90" y="1333.64" angle="233.59" type="DEFAULT_VEHTYPE" speed="1.97" pos="7.07" lane="a203[0]_0" slope="0.00"/>
    </timestep>
    <timestep time="156.00">
        <vehicle id="0" x="1322.29" y="822.00" angle="2.95" type="DEFAULT_VEHTYPE" speed="0.99" pos="172.60" lane="a171_0" slope="0.00"/>
        <vehicle id="1" x="1317.78" y="734.58" angle="2.95" type="DEFAULT_VEHTYPE" speed="12.90" pos="85.07" lane="a171_0" slope="0.00"/>
        <vehicle id="2" x="2103.92" y="1331.45" angle="233.59" type="DEFAULT_VEHTYPE" speed="3.70" pos="10.77" lane="a203[0]_0" slope="0.00"/>
    </timestep>
    <timestep time="157.00">
        <vehicle id="0" x="1322.29" y="822.12" angle="2.95" type="DEFAULT_VEHTYPE" speed="0.12" pos="172.72" lane="a171_0" slope="0.00"/>
        <vehicle id="1" x="1318.41" y="746.81" angle="2.95" type="DEFAULT_VEHTYPE" speed="12.25" pos="97.31" lane="a171_0" slope="0.00"/>
        <vehicle id="2" x="2099.43" y="1328.13" angle="233.59" type="DEFAULT_VEHTYPE" speed="5.59" pos="16.36" lane="a203[0]_0" slope="0.00"/>
    </timestep>
    <timestep time="158.00">
        <vehicle id="0" x="1322.30" y="822.21" angle="2.95" type="DEFAULT_VEHTYPE" speed="0.09" pos="172.81" lane="a171_0" slope="0.00"/>
        <vehicle id="1" x="1319.03" y="758.80" angle="2.95" type="DEFAULT_VEHTYPE" speed="12.00" pos="109.32" lane="a171_0" slope="0.00"/>
        <vehicle id="2" x="2093.17" y="1323.52" angle="233.59" type="DEFAULT_VEHTYPE" speed="7.77" pos="24.13" lane="a203[0]_0" slope="0.00"/>
    </timestep>
    <timestep time="159.00">
        <vehicle id="0" x="1322.30" y="822.24" angle="2.95" type="DEFAULT_VEHTYPE" speed="0.03" pos="172.84" lane="a171_0" slope="0.00"/>
        <vehicle id="1" x="1319.68" y="771.42" angle="2.95" type="DEFAULT_VEHTYPE" speed="12.64" pos="121.96" lane="a171_0" slope="0.00"/>
        <vehicle id="2" x="2084.95" y="1317.45" angle="233.59" type="DEFAULT_VEHTYPE" speed="10.22" pos="34.34" lane="a203[0]_0" slope="0.00"/>
    </timestep>
    <timestep time="160.00">
        <vehicle id="0" x="1322.30" y="822.24" angle="2.95" type="DEFAULT_VEHTYPE" speed="0.00" pos="172.84" lane="a171_0" slope="0.00"/>
        <vehicle id="1" x="1320.30" y="783.48" angle="2.95" type="DEFAULT_VEHTYPE" speed="12.07" pos="134.03" lane="a171_0" slope="0.00"/>
        <vehicle id="2" x="2075.46" y="1310.45" angle="233.59" type="DEFAULT_VEHTYPE" speed="11.80" pos="46.14" lane="a203[0]_0" slope="0.00"/>
    </timestep>
    <timestep time="161.00">
        <vehicle id="0" x="1322.30" y="822.24" angle="2.95" type="DEFAULT_VEHTYPE" speed="0.00" pos="172.84" lane="a171_0" slope="0.00"/>
        <vehicle id="1" x="1320.96" y="796.32" angle="2.95" type="DEFAULT_VEHTYPE" speed="12.86" pos="146.89" lane="a171_0" slope="0.00"/>
        <vehicle id="2" x="2064.18" y="1302.13" angle="233.59" type="DEFAULT_VEHTYPE" speed="14.02" pos="60.16" lane="a203[0]_0" slope="0.00"/>
    </timestep>
    <timestep time="162.00">
        <vehicle id="0" x="1322.30" y="822.24" angle="2.95" type="DEFAULT_VEHTYPE" speed="0.00" pos="172.84" lane="a171_0" slope="0.00"/>
        <vehicle id="1" x="1321.50" y="806.69" angle="2.95" type="DEFAULT_VEHTYPE" speed="10.39" pos="157.27" lane="a171_0" slope="0.00"/>
        <vehicle id="2" x="2053.20" y="1294.03" angle="233.59" type="DEFAULT_VEHTYPE" speed="13.64" pos="73.80" lane="a203[0]_0" slope="0.00"/>
    </timestep>
    <timestep time="163.00">
        <vehicle id="0" x="1322.30" y="822.24" angle="2.95" type="DEFAULT_VEHTYPE" speed="0.00" pos="172.84" lane="a171_0" slope="0.00"/>
        <vehicle id="1" x="1321.80" y="812.57" angle="2.95" type="DEFAULT_VEHTYPE" speed="5.89" pos="163.16" lane="a171_0" slope="0.00"/>
        <vehicle id="2" x="2042.91" y="1286.44" angle="233.59" type="DEFAULT_VEHTYPE" speed="12.79" pos="86.59" lane="a203[0]_0" slope="0.00"/>
    </timestep>
    <timestep time="164.00">
        <vehicle id="0" x="1322.30" y="822.24" angle="2.95" type="DEFAULT_VEHTYPE" speed="0.00" pos="172.84" lane="a171_0" slope="0.00"/>
        <vehicle id="1" x="1321.90" y="814.49" angle="2.95" type="DEFAULT_VEHTYPE" speed="1.92" pos="165.08" lane="a171_0" slope="0.00"/>
        <vehicle id="2" x="2032.22" y="1278.56" angle="233.59" type="DEFAULT_VEHTYPE" speed="13.29" pos="99.87" lane="a203[0]_0" slope="0.00"/>
    </timestep>
    <timestep time="165.00">
        <vehicle id="0" x="1322.30" y="822.24" angle="2.95" type="DEFAULT_VEHTYPE" speed="0.00" pos="172.84" lane="a171_0" slope="0.00"/>
        <vehicle id="1" x="1321.91" y="814.71" angle="2.95" type="DEFAULT_VEHTYPE" speed="0.22" pos="165.30" lane="a171_0" slope="0.00"/>
        <vehicle id="2" x="2021.18" y="1270.42" angle="233.59" type="DEFAULT_VEHTYPE" speed="13.71" pos="113.58" lane="a203[0]_0" slope="0.00"/>
    </timestep>
    <timestep time="166.00">
        <vehicle id="0" x="1322.30" y="822.24" angle="2.95" type="DEFAULT_VEHTYPE" speed="0.00" pos="172.84" lane="a171_0" slope="0.00"/>
        <vehicle id="1" x="1321.91" y="814.74" angle="2.95" type="DEFAULT_VEHTYPE" speed="0.03" pos="165.33" lane="a171_0" slope="0.00"/>
        <vehicle id="2" x="2009.98" y="1262.16" angle="233.59" type="DEFAULT_VEHTYPE" speed="13.92" pos="127.50" lane="a203[0]_0" slope="0.00"/>
    </timestep>
    <timestep time="167.00">
        <vehicle id="0" x="1322.30" y="822.24" angle="2.95" type="DEFAULT_VEHTYPE" speed="0.00" pos="172.84" lane="a171_0" slope="0.00"/>
        <vehicle id="1" x="1321.91" y="814.75" angle="2.95" type="DEFAULT_VEHTYPE" speed="0.01" pos="165.33" lane="a171_0" slope="0.00"/>
        <vehicle id="2" x="1999.02" y="1254.07" angle="233.59" type="DEFAULT_VEHTYPE" speed="13.62" pos="141.12" lane="a203[0]_0" slope="0.00"/>
    </timestep>
    <timestep time="168.00">
        <vehicle id="0" x="1322.30" y="822.24" angle="2.95" type="DEFAULT_VEHTYPE" speed="0.00" pos="172.84" lane="a171_0" slope="0.00"/>
        <vehicle id="1" x="1321.91" y="814.75" angle="2.95" type="DEFAULT_VEHTYPE" speed="0.00" pos="165.34" lane="a171_0" slope="0.00"/>
        <vehicle id="2" x="1988.02" y="1245.95" angle="233.59" type="DEFAULT_VEHTYPE" speed="13.67" pos="154.80" lane="a203[0]_0" slope="0.00"/>
    </timestep>
    <timestep time="169.00">
        <vehicle id="0" x="1322.30" y="822.24" angle="2.95" type="DEFAULT_VEHTYPE" speed="0.00" pos="172.84" lane="a171_0" slope="0.00"/>
        <vehicle id="1" x="1321.91" y="814.75" angle="2.95" type="DEFAULT_VEHTYPE" speed="0.00" pos="165.34" lane="a171_0" slope="0.00"/>
        <vehicle id="2" x="1977.23" y="1238.00" angle="233.59" type="DEFAULT_VEHTYPE" speed="13.40" pos="168.20" lane="a203[0]_0" slope="0.00"/>
    </timestep>
    <timestep time="170.00">
        <vehicle id="0" x="1322.30" y="822.24" angle="2.95" type="DEFAULT_VEHTYPE" speed="0.00" pos="172.84" lane="a171_0" slope="0.00"/>
        <vehicle id="1" x="1321.91" y="814.75" angle="2.95" type="DEFAULT_VEHTYPE" speed="0.00" pos="165.34" lane="a171_0" slope="0.00"/>
        <vehicle id="2" x="1966.51" y="1230.09" angle="233.59" type="DEFAULT_VEHTYPE" speed="13.32" pos="181.52" lane="a203[0]_0" slope="0.00"/>
    </timestep>
    <timestep time="171.00">
        <vehicle id="0" x="1322.30" y="822.24" angle="2.95" type="DEFAULT_VEHTYPE" speed="0.00" pos="172.84" lane="a171_0" slope="0.00"/>
        <vehicle id="1" x="1321.91" y="814.75" angle="2.95" type="DEFAULT_VEHTYPE" speed="0.00" pos="165.34" lane="a171_0" slope="0.00"/>
        <vehicle id="2" x="1956.23" y="1222.51" angle="233.59" type="DEFAULT_VEHTYPE" speed="12.78" pos="194.30" lane="a203[0]_0" slope="0.00"/>
    </timestep>
    <timestep time="172.00">
        <vehicle id="0" x="1322.30" y="822.24" angle="2.95" type="DEFAULT_VEHTYPE" speed="0.00" pos="172.84" lane="a171_0" slope="0.00"/>
        <vehicle id="1" x="1321.91" y="814.75" angle="2.95" type="DEFAULT_VEHTYPE" speed="0.00" pos="165.34" lane="a171_0" slope="0.00"/>
        <vehicle id="2" x="1945.61" y="1214.68" angle="233.59" type="DEFAULT_VEHTYPE" speed="13.19" pos="207.49" lane="a203[0]_0" slope="0.00"/>
    </timestep>
    <timestep time="173.00">
        <vehicle id="0" x="1322.30" y="822.24" angle="2.95" type="DEFAULT_VEHTYPE" speed="0.00" pos="172.84" lane="a171_0" slope="0.00"/>
        <vehicle id="1" x="1321.91" y="814.75" angle="2.95" type="DEFAULT_VEHTYPE" speed="0.00" pos="165.34" lane="a171_0" slope="0.00"/>
        <vehicle id="2" x="1935.13" y="1206.95" angle="233.59" type="DEFAULT_VEHTYPE" speed="13.02" pos="220.51" lane="a203[0]_0" slope="0.00"/>
        <vehicle id="3" x="1335.81" y="828.55" angle="90.00" type="DEFAULT_VEHTYPE" speed="0.00" pos="5.10" lane="a161_0" slope="0.00"/>
    </timestep>
    <timestep time="174.00">
        <vehicle id="0" x="1322.30" y="822.24" angle="2.95" type="DEFAULT_VEHTYPE" speed="0.00" pos="172.84" lane="a171_0" slope="0.00"/>
        <vehicle id="1" x="1321.91" y="814.75" angle="2.95" type="DEFAULT_VEHTYPE" speed="0.00" pos="165.34" lane="a171_0" slope="0.00"/>
        <vehicle id="2" x="1924.73" y="1199.28" angle="233.59" type="DEFAULT_VEHTYPE" speed="12.92" pos="233.43" lane="a203[0]_0" slope="0.00"/>
        <vehicle id="3" x="1337.18" y="828.55" angle="90.00" type="DEFAULT_VEHTYPE" speed="1.38" pos="6.48" lane="a161_0" slope="0.00"/>
    </timestep>
    <timestep time="175.00">
        <vehicle id="0" x="1322.30" y="822.24" angle="2.95" type="DEFAULT_VEHTYPE" speed="0.00" pos="172.84" lane="a171_0" slope="0.00"/>
        <vehicle id="1" x="1321.91" y="814.75" angle="2.95" type="DEFAULT_VEHTYPE" speed="0.00" pos="165.34" lane="a171_0" slope="0.00"/>
        <vehicle id="2" x="1913.65" y="1191.10" angle="233.59" type="DEFAULT_VEHTYPE" speed="13.77" pos="247.20" lane="a203[0]_0" slope="0.00"/>
        <vehicle id="3" x="1339.89" y="828.55" angle="90.00" type="DEFAULT_VEHTYPE" speed="2.70" pos="9.18" lane="a161_0" slope="0.00"/>
    </timestep>
    <timestep time="176.00">
        <vehicle id="0" x="1322.30" y="822.24" angle="2.95" type="DEFAULT_VEHTYPE" speed="0.00" pos="172.84" lane="a171_0" slope="0.00"/>
        <vehicle id="1" x="1321.91" y="814.75" angle="2.95" type="DEFAULT_VEHTYPE" speed="0.00" pos="165.34" lane="a171_0" slope="0.00"/>
        <vehicle id="2" x="1902.61" y="1182.96" angle="233.59" type="DEFAULT_VEHTYPE" speed="13.72" pos="260.92" lane="a203[0]_0" slope="0.00"/>
        <vehicle id="3" x="1344.03" y="828.55" angle="90.00" type="DEFAULT_VEHTYPE" speed="4.14" pos="13.32" lane="a161_0" slope="0.00"/>
    </timestep>
    <timestep time="177.00">
        <vehicle id="0" x="1322.30" y="822.24" angle="2.95" type="DEFAULT_VEHTYPE" speed="0.00" pos="172.84" lane="a171_0" slope="0.00"/>
        <vehicle id="1" x="1321.91" y="814.75" angle="2.95" type="DEFAULT_VEHTYPE" speed="0.00" pos="165.34" lane="a171_0" slope="0.00"/>
        <vehicle id="2" x="1891.98" y="1175.12" angle="233.59" type="DEFAULT_VEHTYPE" speed="13.21" pos="274.13" lane="a203[0]_0" slope="0.00"/>
        <vehicle id="3" x="1350.71" y="828.55" angle="90.00" type="DEFAULT_VEHTYPE" speed="6.69" pos="20.01" lane="a161_0" slope="0.00"/>
    </timestep>
    <timestep time="178.00">
        <vehicle id="0" x="1322.30" y="822.24" angle="2.95" type="DEFAULT_VEHTYPE" speed="0.00" pos="172.84" lane="a171_0" slope="0.00"/>
        <vehicle id="1" x="1321.91" y="814.75" angle="2.95" type="DEFAULT_VEHTYPE" speed="0.00" pos="165.34" lane="a171_0" slope="0.00"/>
        <vehicle id="2" x="1881.50" y="1167.39" angle="233.59" type="DEFAULT_VEHTYPE" speed="13.02" pos="287.15" lane="a203[0]_0" slope="0.00"/>
        <vehicle id="3" x="1359.84" y="831.75" angle="90.00" type="DEFAULT_VEHTYPE" speed="9.11" pos="29.13" lane="a161_1" slope="0.00"/>
    </timestep>
    <timestep time="179.00">
        <vehicle id="0" x="1322.30" y="822.24" angle="2.95" type="DEFAULT_VEHTYPE" speed="0.00" pos="172.84" lane="a171_0" slope="0.00"/>
        <vehicle id="1" x="1321.91" y="814.75" angle="2.95" type="DEFAULT_VEHTYPE" speed="0.00" pos="165.34" lane="a171_0" slope="0.00"/>
        <vehicle id="2" x="1870.27" y="1159.11" angle="233.59" type="DEFAULT_VEHTYPE" speed="13.96" pos="301.11" lane="a203[0]_0" slope="0.00"/>
        <vehicle id="3" x="1371.51" y="831.75" angle="90.00" type="DEFAULT_VEHTYPE" speed="11.67" pos="40.80" lane="a161_1" slope="0.00"/>
    </timestep>
    <timestep time="180.00">
        <vehicle id="0" x="1322.30" y="822.24" angle="2.95" type="DEFAULT_VEHTYPE" speed="0.00" pos="172.84" lane="a171_0" slope="0.00"/>
        <vehicle id="1" x="1321.91" y="814.75" angle="2.95" type="DEFAULT_VEHTYPE" speed="0.00" pos="165.34" lane="a171_0" slope="0.00"/>
        <vehicle id="2" x="1859.57" y="1151.21" angle="233.59" type="DEFAULT_VEHTYPE" speed="13.29" pos="314.40" lane="a203[0]_0" slope="0.00"/>
        <vehicle id="3" x="1385.70" y="831.69" angle="90.67" type="DEFAULT_VEHTYPE" speed="14.19" pos="54.99" lane="a161_1" slope="0.00"/>
    </timestep>
    <timestep time="181.00">
        <vehicle id="0" x="1322.30" y="822.24" angle="2.95" type="DEFAULT_VEHTYPE" speed="0.00" pos="172.84" lane="a171_0" slope="0.00"/>
        <vehicle id="1" x="1321.91" y="814.75" angle="2.95" type="DEFAULT_VEHTYPE" speed="0.00" pos="165.34" lane="a171_0" slope="0.00"/>
        <vehicle id="2" x="1848.35" y="1142.94" angle="233.59" type="DEFAULT_VEHTYPE" speed="13.94" pos="328.34" lane="a203[0]_0" slope="0.00"/>
        <vehicle id="3" x="1400.13" y="831.34" angle="91.38" type="DEFAULT_VEHTYPE" speed="14.43" pos="69.42" lane="a161_1" slope="0.00"/>
    </timestep>
    <timestep time="182.00">
        <vehicle id="0" x="1322.30" y="822.24" angle="2.95" type="DEFAULT_VEHTYPE" speed="0.00" pos="172.84" lane="a171_0" slope="0.00"/>
        <vehicle id="1" x="1321.91" y="814.75" angle="2.95" type="DEFAULT_VEHTYPE" speed="0.00" pos="165.34" lane="a171_0" slope="0.00"/>
        <vehicle id="2" x="1837.55" y="1134.97" angle="233.59" type="DEFAULT_VEHTYPE" speed="13.43" pos="341.77" lane="a203[0]_0" slope="0.00"/>
        <vehicle id="3" x="1414.74" y="830.96" angle="91.75" type="DEFAULT_VEHTYPE" speed="14.62" pos="84.04" lane="a161_1" slope="0.00"/>
    </timestep>
    <timestep time="183.00">
        <vehicle id="0" x="1322.30" y="822.24" angle="2.95" type="DEFAULT_VEHTYPE" speed="0.00" pos="172.84" lane="a171_0" slope="0.00"/>
        <vehicle id="1" x="1321.91" y="814.75" angle="2.95" type="DEFAULT_VEHTYPE" speed="0.00" pos="165.34" lane="a171_0" slope="0.00"/>
        <vehicle id="2" x="1826.74" y="1127.00" angle="233.59" type="DEFAULT_VEHTYPE" speed="13.42" pos="355.19" lane="a203[0]_0" slope="0.00"/>
        <vehicle id="3" x="1429.58" y="830.45" angle="91.96" type="DEFAULT_VEHTYPE" speed="14.84" pos="98.88" lane="a161_1" slope="0.00"/>
    </timestep>
    <timestep time="184.00">
        <vehicle id="0" x="1322.62" y="824.22" angle="5.42" type="DEFAULT_VEHTYPE" speed="2.02" pos="1.01" lane=":a52_0_0" slope="0.00"/>
        <vehicle id="1" x="1321.91" y="814.75" angle="2.95" type="DEFAULT_VEHTYPE" speed="0.00" pos="165.34" lane="a171_0" slope="0.00"/>
        <vehicle id="2" x="1815.89" y="1118.99" angle="233.59" type="DEFAULT_VEHTYPE" speed="13.49" pos="368.68" lane="a203[0]_0" slope="0.00"/>
        <vehicle id="3" x="1444.01" y="829.96" angle="91.96" type="DEFAULT_VEHTYPE" speed="14.44" pos="113.33" lane="a161_1" slope="0.00"/>
    </timestep>
    <timestep time="185.00">
        <vehicle id="0" x="1325.39" y="827.53" angle="37.73" type="DEFAULT_VEHTYPE" speed="4.57" pos="5.58" lane=":a52_0_0" slope="0.00"/>
        <vehicle id="1" x="1321.99" y="816.32" angle="2.95" type="DEFAULT_VEHTYPE" speed="1.57" pos="166.91" lane="a171_0" slope="0.00"/>
        <vehicle id="2" x="1805.31" y="1111.19" angle="233.59" type="DEFAULT_VEHTYPE" speed="13.14" pos="381.83" lane="a203[0]_0" slope="0.00"/>
        <vehicle id="3" x="1458.80" y="829.45" angle="91.96" type="DEFAULT_VEHTYPE" speed="14.79" pos="128.12" lane="a161_1" slope="0.00"/>
    </timestep>
    <timestep time="186.00">
        <vehicle id="0" x="1332.02" y="828.55" angle="85.70" type="DEFAULT_VEHTYPE" speed="6.77" pos="1.31" lane="a161_0" slope="0.00"/>
        <vehicle id="1" x="1322.20" y="820.28" angle="2.95" type="DEFAULT_VEHTYPE" speed="3.97" pos="170.88" lane="a171_0" slope="0.00"/>
        <vehicle id="2" x="1794.67" y="1103.34" angle="233.59" type="DEFAULT_VEHTYPE" speed="13.22" pos="395.05" lane="a203[0]_0" slope="0.00"/>
        <vehicle id="3" x="1473.59" y="828.95" angle="91.96" type="DEFAULT_VEHTYPE" speed="14.80" pos="142.93" lane="a161_1" slope="0.00"/>
    </timestep>
    <timestep time="187.00">
        <vehicle id="0" x="1340.48" y="828.55" angle="90.00" type="DEFAULT_VEHTYPE" speed="8.46" pos="9.77" lane="a161_0" slope="0.00"/>
        <vehicle id="1" x="1323.33" y="825.93" angle="12.88" type="DEFAULT_VEHTYPE" speed="5.87" pos="2.91" lane=":a52_0_0" slope="0.00"/>