<?xml version="1.0" encoding="UTF-8"?>

<!-- generated on 2025-03-21 17:16:09 by Eclipse SUMO sumo Version 1.21.0
<sumoConfiguration xmlns:xsi="http://www.w3.org/2001/XMLSchema-instance" xsi:noNamespaceSchemaLocation="http://sumo.dlr.de/xsd/sumoConfiguration.xsd">

    <input>
        <net-file value="${STATICPATH}/joined_lanes.net.xml"/>
        <route-files value="${SIMULATIONPATH}/generatedRoutes.rou.xml"/>
        <additional-files value="${STATICPATH}/detectors.add.xml,${STATICPATH}/joined_vtypes.add.xml,${STATICPATH}/joined_tls.add.xml"/>
    </input>

    <output>
        <fcd-output value="${SIMULATIONPATH}/fcd.xml"/>
        <queue-output value="${SIMULATIONPATH}/queue.xml"/>
        <summary-output value="${SIMULATIONPATH}/summary.xml"/>
        <tripinfo-output value="${SIMULATIONPATH}/tripinfos.xml"/>
        <vehroute-output value="${SIMULATIONPATH}/vehroute.xml"/>
        <save-state.prefix value="configs\state"/>
    </output>

    <processing>
        <ignore-junction-blocker value="1"/>
        <ignore-route-errors value="true"/>
        <time-to-teleport value="-1"/>
    </processing>

    <report>
        <log value="C:/Users/fabio/Desktop/sumo_log.txt"/>
        <no-step-log value="true"/>
    </report>

    <emissions>
        <phemlight-path value="configs\./PHEMlight/"/>
    </emissions>

    <traci_server>
        <remote-port value="60010"/>
    </traci_server>

</sumoConfiguration>
-->

<tripinfos xmlns:xsi="http://www.w3.org/2001/XMLSchema-instance" xsi:noNamespaceSchemaLocation="http://sumo.dlr.de/xsd/tripinfo_file.xsd">
    <tripinfo id="0" depart="129.00" departLane="a87[0]_0" departPos="4.30" departSpeed="0.00" departDelay="0.94" arrival="315.00" arrivalLane="b53a_0" arrivalPos="257.19" arrivalSpeed="13.48" duration="186.00" routeLength="1835.21" waitingTime="31.00" waitingCount="2" stopTime="0.00" timeLoss="58.69" rerouteNo="0" devices="vehroute_0 tripinfo_0 fcd_0" vType="DEFAULT_VEHTYPE" speedFactor="1.06" vaporized=""/>
    <tripinfo id="1" depart="137.00" departLane="a87[0]_0" departPos="4.30" departSpeed="0.00" departDelay="0.12" arrival="321.00" arrivalLane="b53a_0" arrivalPos="257.19" arrivalSpeed="12.58" duration="184.00" routeLength="1835.21" waitingTime="19.00" waitingCount="1" stopTime="0.00" timeLoss="39.75" rerouteNo="0" devices="vehroute_1 tripinfo_1 fcd_1" vType="DEFAULT_VEHTYPE" speedFactor="0.94" vaporized=""/>
    <tripinfo id="2" depart="154.00" departLane="a203[0]_0" departPos="5.10" departSpeed="0.00" departDelay="0.52" arrival="365.00" arrivalLane="b2[1][1][1]b_0" arrivalPos="325.74" arrivalSpeed="13.04" duration="211.00" routeLength="2513.32" waitingTime="5.00" waitingCount="1" stopTime="0.00" timeLoss="29.57" rerouteNo="0" devices="vehroute_2 tripinfo_2 fcd_2" vType="DEFAULT_VEHTYPE" speedFactor="1.01" vaporized=""/>
    <tripinfo id="3" depart="173.00" departLane="a161_0" departPos="5.10" departSpeed="0.00" departDelay="0.81" arrival="455.00" arrivalLane="b2[1][0]_0" arrivalPos="284.76" arrivalSpeed="14.53" duration="282.00" routeLength="2461.77" waitingTime="80.00" waitingCount="4" stopTime="0.00" timeLoss="115.83" rerouteNo="0" devices="vehroute_3 tripinfo_3 fcd_3" vType="DEFAULT_VEHTYPE" speedFactor="1.08" vaporized=""/>
    <tripinfo id="5" depart="269.00" departLane="a87[0]_0" departPos="4.30" departSpeed="0.00" departDelay="0.33" arrival="460.00" arrivalLane="b53a_0" arrivalPos="257.19" arrivalSpeed="11.47" duration="191.00" routeLength="1835.21" waitingTime="5.00" waitingCount="1" stopTime="0.00" timeLoss="28.44" rerouteNo="0" devices="vehroute_5 tripinfo_5 fcd_5" vType="DEFAULT_VEHTYPE" speedFactor="0.83" vaporized=""/>
    <tripinfo id="4" depart="233.00" departLane="a210_0" departPos="5.10" departSpeed="0.00" departDelay="0.38" arrival="526.00" arrivalLane="b10_0" arrivalPos="224.30" arrivalSpeed="13.74" duration="293.00" routeLength="2833.68" waitingTime="68.00" waitingCount="2" stopTime="0.00" timeLoss="94.66" rerouteNo="0" devices="vehroute_4 tripinfo_4 fcd_4" vType="DEFAULT_VEHTYPE" speedFactor="1.03" vaporized=""/>
    <tripinfo id="6" depart="276.00" departLane="a161_0" departPos="5.10" departSpeed="0.00" departDelay="0.90" arrival="579.00" arrivalLane="b2[1][0]_0" arrivalPos="284.76" arrivalSpeed="13.60" duration="303.00" routeLength="2461.77" waitingTime="90.00" waitingCount="5" stopTime="0.00" timeLoss="131.23" rerouteNo="0" devices="vehroute_6 tripinfo_6 fcd_6" vType="DEFAULT_VEHTYPE" speedFactor="1.05" vaporized=""/>
    <tripinfo id="8" depart="380.00" departLane="a87[0]_0" departPos="4.30" departSpeed="0.00" departDelay="0.68" arrival="581.00" arrivalLane="b53a_0" arrivalPos="257.19" arrivalSpeed="12.73" duration="201.00" routeLength="1839.70" waitingTime="32.00" waitingCount="3" stopTime="0.00" timeLoss="56.89" rerouteNo="0" devices="vehroute_8 tripinfo_8 fcd_8" vType="DEFAULT_VEHTYPE" speedFactor="0.94" vaporized=""/>
    <tripinfo id="10" depart="458.00" departLane="a87[0]_0" departPos="4.30" departSpeed="0.00" departDelay="0.08" arrival="677.00" arrivalLane="b53a_0" arrivalPos="257.19" arrivalSpeed="14.88" duration="219.00" routeLength="1835.21" waitingTime="65.00" waitingCount="3" stopTime="0.00" timeLoss="94.70" rerouteNo="0" devices="vehroute_10 tripinfo_10 fcd_10" vType="DEFAULT_VEHTYPE" speedFactor="1.09" vaporized=""/>
    <tripinfo id="13" depart="538.00" departLane="a78[0]_0" departPos="5.10" departSpeed="0.00" departDelay="0.74" arrival="724.00" arrivalLane="b4[1][1][1]_0" arrivalPos="171.54" arrivalSpeed="15.27" duration="186.00" routeLength="2453.17" waitingTime="3.00" waitingCount="1" stopTime="0.00" timeLoss="26.51" rerouteNo="0" devices="vehroute_13 tripinfo_13 fcd_13" vType="DEFAULT_VEHTYPE" speedFactor="1.12" vaporized=""/>
    <tripinfo id="11" depart="480.00" departLane="a203[0]_0" departPos="5.10" departSpeed="0.00" departDelay="0.68" arrival="764.00" arrivalLane="b2[1][1][1]b_1" arrivalPos="325.74" arrivalSpeed="13.61" duration="284.00" routeLength="2513.32" waitingTime="65.00" waitingCount="3" stopTime="0.00" timeLoss="105.62" rerouteNo="0" devices="vehroute_11 tripinfo_11 fcd_11" vType="DEFAULT_VEHTYPE" speedFactor="1.03" vaporized=""/>
    <tripinfo id="12" depart="483.00" departLane="a203[0]_0" departPos="5.10" departSpeed="0.00" departDelay="1.31" arrival="764.00" arrivalLane="b2[1][1][1]b_0" arrivalPos="325.74" arrivalSpeed="13.77" duration="281.00" routeLength="2513.32" waitingTime="70.00" waitingCount="3" stopTime="0.00" timeLoss="105.89" rerouteNo="0" devices="vehroute_12 tripinfo_12 fcd_12" vType="DEFAULT_VEHTYPE" speedFactor="1.05" vaporized=""/>
    <tripinfo id="9" depart="381.00" departLane="a203[0]_0" departPos="5.10" departSpeed="0.00" departDelay="0.50" arrival="770.00" arrivalLane="b2[1][1][1]b_0" arrivalPos="325.74" arrivalSpeed="11.17" duration="389.00" routeLength="2513.32" waitingTime="139.00" waitingCount="4" stopTime="0.00" timeLoss="175.11" rerouteNo="0" devices="vehroute_9 tripinfo_9 fcd_9" vType="DEFAULT_VEHTYPE" speedFactor="0.86" vaporized=""/>
    <tripinfo id="7" depart="368.00" departLane="a203[0]_0" departPos="5.10" departSpeed="0.00" departDelay="0.26" arrival="771.00" arrivalLane="b2[1][1][1]b_1" arrivalPos="325.74" arrivalSpeed="11.95" duration="403.00" routeLength="2513.32" waitingTime="161.00" waitingCount="4" stopTime="0.00" timeLoss="197.00" rerouteNo="0" devices="vehroute_7 tripinfo_7 fcd_7" vType="DEFAULT_VEHTYPE" speedFactor="0.89" vaporized=""/>
    <tripinfo id="14" depart="615.00" departLane="a87[0]_0" departPos="4.30" departSpeed="0.00" departDelay="0.61" arrival="835.00" arrivalLane="b53a_0" arrivalPos="257.19" arrivalSpeed="13.76" duration="220.00" routeLength="1835.21" waitingTime="58.00" waitingCount="1" stopTime="0.00" timeLoss="84.19" rerouteNo="0" devices="vehroute_14 tripinfo_14 fcd_14" vType="DEFAULT_VEHTYPE" speedFactor="0.99" vaporized=""/>
    <tripinfo id="15" depart="626.00" departLane="a210_0" departPos="5.10" departSpeed="0.00" departDelay="0.49" arrival="937.00" arrivalLane="b10_0" arrivalPos="224.30" arrivalSpeed="12.10" duration="311.00" routeLength="2833.68" waitingTime="54.00" waitingCount="4" stopTime="0.00" timeLoss="90.61" rerouteNo="0" devices="vehroute_15 tripinfo_15 fcd_15" vType="DEFAULT_VEHTYPE" speedFactor="0.93" vaporized=""/>
    <tripinfo id="18" depart="687.00" departLane="b2[1][0]_0" departPos="5.10" departSpeed="0.00" departDelay="4.10" arrival="939.00" arrivalLane="a77[0]_0" arrivalPos="66.48" arrivalSpeed="12.92" duration="252.00" routeLength="2553.56" waitingTime="17.00" waitingCount="2" stopTime="0.00" timeLoss="52.38" rerouteNo="0" devices="vehroute_18 tripinfo_18 fcd_18" vType="DEFAULT_VEHTYPE" speedFactor="0.94" vaporized=""/>
    <tripinfo id="19" depart="691.00" departLane="a161_0" departPos="5.10" departSpeed="0.00" departDelay="0.58" arrival="944.00" arrivalLane="b2[1][0]_0" arrivalPos="284.76" arrivalSpeed="15.28" duration="253.00" routeLength="2461.77" waitingTime="49.00" waitingCount="2" stopTime="0.00" timeLoss="97.97" rerouteNo="0" devices="vehroute_19 tripinfo_19 fcd_19" vType="DEFAULT_VEHTYPE" speedFactor="1.16" vaporized=""/>
    <tripinfo id="17" depart="645.00" departLane="a161_0" departPos="5.10" departSpeed="0.00" departDelay="5.04" arrival="952.00" arrivalLane="b2[1][0]_0" arrivalPos="284.76" arrivalSpeed="12.04" duration="307.00" routeLength="2457.28" waitingTime="86.00" waitingCount="2" stopTime="0.00" timeLoss="116.58" rerouteNo="0" devices="vehroute_17 tripinfo_17 fcd_17" vType="DEFAULT_VEHTYPE" speedFactor="0.94" vaporized=""/>
    <tripinfo id="20" depart="716.00" departLane="a87[0]_0" departPos="4.30" departSpeed="0.00" departDelay="0.12" arrival="991.00" arrivalLane="b53a_0" arrivalPos="257.19" arrivalSpeed="13.69" duration="275.00" routeLength="1839.70" waitingTime="110.00" waitingCount="4" stopTime="0.00" timeLoss="141.43" rerouteNo="0" devices="vehroute_20 tripinfo_20 fcd_20" vType="DEFAULT_VEHTYPE" speedFactor="1.02" vaporized=""/>
    <tripinfo id="27" depart="895.00" departLane="a78[0]_0" departPos="5.10" departSpeed="0.00" departDelay="0.11" arrival="1054.00" arrivalLane="b2[1][1][1]b_0" arrivalPos="325.74" arrivalSpeed="12.97" duration="159.00" routeLength="1757.08" waitingTime="7.00" waitingCount="1" stopTime="0.00" timeLoss="24.42" rerouteNo="0" devices="vehroute_27 tripinfo_27 fcd_27" vType="DEFAULT_VEHTYPE" speedFactor="0.95" vaporized=""/>
    <tripinfo id="24" depart="825.00" departLane="a67_0" departPos="5.10" departSpeed="0.00" departDelay="0.98" arrival="1068.00" arrivalLane="b70_0" arrivalPos="60.87" arrivalSpeed="10.61" duration="243.00" routeLength="1689.31" waitingTime="64.00" waitingCount="2" stopTime="0.00" timeLoss="92.69" rerouteNo="0" devices="vehroute_24 tripinfo_24 fcd_24" vType="DEFAULT_VEHTYPE" speedFactor="0.83" vaporized=""/>
    <tripinfo id="22" depart="795.00" departLane="a161_0" departPos="5.10" departSpeed="0.00" departDelay="0.11" arrival="1074.00" arrivalLane="b2[1][0]_0" arrivalPos="284.76" arrivalSpeed="12.89" duration="279.00" routeLength="2457.28" waitingTime="60.00" waitingCount="3" stopTime="0.00" timeLoss="94.93" rerouteNo="0" devices="vehroute_22 tripinfo_22 fcd_22" vType="DEFAULT_VEHTYPE" speedFactor="0.97" vaporized=""/>
    <tripinfo id="28" depart="912.00" departLane="a87[0]_0" departPos="4.30" departSpeed="0.00" departDelay="0.99" arrival="1097.00" arrivalLane="b53a_0" arrivalPos="257.19" arrivalSpeed="14.84" duration="185.00" routeLength="1839.70" waitingTime="36.00" waitingCount="2" stopTime="0.00" timeLoss="64.82" rerouteNo="0" devices="vehroute_28 tripinfo_28 fcd_28" vType="DEFAULT_VEHTYPE" speedFactor="1.13" vaporized=""/>
    <tripinfo id="21" depart="763.00" departLane="a3_0" departPos="5.10" departSpeed="0.00" departDelay="0.68" arrival="1098.00" arrivalLane="b10_0" arrivalPos="224.30" arrivalSpeed="12.82" duration="335.00" routeLength="3051.47" waitingTime="49.00" waitingCount="6" stopTime="0.00" timeLoss="114.40" rerouteNo="0" devices="vehroute_21 tripinfo_21 fcd_21" vType="DEFAULT_VEHTYPE" speedFactor="1.01" vaporized=""/>
    <tripinfo id="16" depart="637.00" departLane="a3_0" departPos="5.10" departSpeed="0.00" departDelay="0.21" arrival="1102.00" arrivalLane="b10_0" arrivalPos="224.30" arrivalSpeed="11.73" duration="465.00" routeLength="3044.48" waitingTime="155.00" waitingCount="7" stopTime="0.00" timeLoss="213.20" rerouteNo="0" devices="vehroute_16 tripinfo_16 fcd_16" vType="DEFAULT_VEHTYPE" speedFactor="0.88" vaporized=""/>
    <tripinfo id="23" depart="818.00" departLane="a69_0" departPos="5.10" departSpeed="0.00" departDelay="0.93" arrival="1156.00" arrivalLane="b11[0]_0" arrivalPos="90.93" arrivalSpeed="11.76" duration="338.00" routeLength="3057.97" waitingTime="54.00" waitingCount="3" stopTime="0.00" timeLoss="86.07" rerouteNo="0" devices="vehroute_23 tripinfo_23 fcd_23" vType="DEFAULT_VEHTYPE" speedFactor="0.89" vaporized=""/>
    <tripinfo id="26" depart="877.00" departLane="a69_0" departPos="5.10" departSpeed="0.00" departDelay="0.48" arrival="1158.00" arrivalLane="b11[0]_0" arrivalPos="90.93" arrivalSpeed="11.69" duration="281.00" routeLength="3053.48" waitingTime="4.00" waitingCount="2" stopTime="0.00" timeLoss="37.46" rerouteNo="0" devices="vehroute_26 tripinfo_26 fcd_26" vType="DEFAULT_VEHTYPE" speedFactor="0.92" vaporized=""/>
    <tripinfo id="29" depart="956.00" departLane="a87[0]_0" departPos="4.30" departSpeed="0.00" departDelay="0.61" arrival="1159.00" arrivalLane="b53a_0" arrivalPos="257.19" arrivalSpeed="12.55" duration="203.00" routeLength="1835.21" waitingTime="38.00" waitingCount="1" stopTime="0.00" timeLoss="58.62" rerouteNo="0" devices="vehroute_29 tripinfo_29 fcd_29" vType="DEFAULT_VEHTYPE" speedFactor="0.93" vaporized=""/>
    <tripinfo id="25" depart="838.00" departLane="a212_0" departPos="5.10" departSpeed="0.00" departDelay="0.48" arrival="1172.00" arrivalLane="b3[1]b_0" arrivalPos="239.77" arrivalSpeed="11.84" duration="334.00" routeLength="2892.70" waitingTime="44.00" waitingCount="2" stopTime="0.00" timeLoss="92.36" rerouteNo="0" devices="vehroute_25 tripinfo_25 fcd_25" vType="DEFAULT_VEHTYPE" speedFactor="0.87" vaporized=""/>
    <tripinfo id="30" depart="958.00" departLane="a69_0" departPos="5.10" departSpeed="0.00" departDelay="0.94" arrival="1212.00" arrivalLane="b11[0]_0" arrivalPos="90.93" arrivalSpeed="15.86" duration="254.00" routeLength="3053.48" waitingTime="27.00" waitingCount="3" stopTime="0.00" timeLoss="64.88" rerouteNo="0" devices="vehroute_30 tripinfo_30 fcd_30" vType="DEFAULT_VEHTYPE" speedFactor="1.18" vaporized=""/>
    <tripinfo id="31" depart="958.00" departLane="a203[0]_0" departPos="5.10" departSpeed="0.00" departDelay="0.33" arrival="1217.00" arrivalLane="b2[1][1][1]b_0" arrivalPos="325.74" arrivalSpeed="15.28" duration="259.00" routeLength="2513.32" waitingTime="69.00" waitingCount="3" stopTime="0.00" timeLoss="101.19" rerouteNo="0" devices="vehroute_31 tripinfo_31 fcd_31" vType="DEFAULT_VEHTYPE" speedFactor="1.15" vaporized=""/>
    <tripinfo id="33" depart="1071.00" departLane="a87[0]_0" departPos="4.30" departSpeed="0.00" departDelay="0.52" arrival="1242.00" arrivalLane="b53a_0" arrivalPos="257.19" arrivalSpeed="15.39" duration="171.00" routeLength="1839.70" waitingTime="26.00" waitingCount="2" stopTime="0.00" timeLoss="55.14" rerouteNo="0" devices="vehroute_33 tripinfo_33 fcd_33" vType="DEFAULT_VEHTYPE" speedFactor="1.17" vaporized=""/>
    <tripinfo id="32" depart="1006.00" departLane="a13_0" departPos="5.10" departSpeed="0.00" departDelay="0.28" arrival="1245.00" arrivalLane="b9_0" arrivalPos="340.87" arrivalSpeed="12.94" duration="239.00" routeLength="2570.40" waitingTime="21.00" waitingCount="3" stopTime="0.00" timeLoss="52.00" rerouteNo="0" devices="vehroute_32 tripinfo_32 fcd_32" vType="DEFAULT_VEHTYPE" speedFactor="1.01" vaporized=""/>
    <tripinfo id="35" depart="1276.00" departLane="a87[0]_0" departPos="4.30" departSpeed="0.00" departDelay="0.75" arrival="1444.00" arrivalLane="b53a_0" arrivalPos="257.19" arrivalSpeed="13.66" duration="168.00" routeLength="1835.21" waitingTime="14.00" waitingCount="1" stopTime="0.00" timeLoss="34.80" rerouteNo="0" devices="vehroute_35 tripinfo_35 fcd_35" vType="DEFAULT_VEHTYPE" speedFactor="1.02" vaporized=""/>
    <tripinfo id="34" depart="1165.00" departLane="a203[0]_0" departPos="5.10" departSpeed="0.00" departDelay="0.40" arrival="1486.00" arrivalLane="b2[1][1][1]b_0" arrivalPos="325.74" arrivalSpeed="13.53" duration="321.00" routeLength="2513.32" waitingTime="105.00" waitingCount="3" stopTime="0.00" timeLoss="136.77" rerouteNo="0" devices="vehroute_34 tripinfo_34 fcd_34" vType="DEFAULT_VEHTYPE" speedFactor="0.99" vaporized=""/>
    <tripinfo id="37" depart="1338.00" departLane="a212_0" departPos="5.10" departSpeed="0.00" departDelay="0.93" arrival="1574.00" arrivalLane="b3[1]b_0" arrivalPos="239.77" arrivalSpeed="15.35" duration="236.00" routeLength="2892.70" waitingTime="20.00" waitingCount="2" stopTime="0.00" timeLoss="57.25" rerouteNo="0" devices="vehroute_37 tripinfo_37 fcd_37" vType="DEFAULT_VEHTYPE" speedFactor="1.18" vaporized=""/>
    <tripinfo id="36" depart="1278.00" departLane="a203[0]_0" departPos="5.10" departSpeed="0.00" departDelay="0.57" arrival="1611.00" arrivalLane="b2[1][1][1]b_0" arrivalPos="325.74" arrivalSpeed="12.59" duration="333.00" routeLength="2513.32" waitingTime="111.00" waitingCount="3" stopTime="0.00" timeLoss="145.21" rerouteNo="0" devices="vehroute_36 tripinfo_36 fcd_36" vType="DEFAULT_VEHTYPE" speedFactor="0.97" vaporized=""/>
    <tripinfo id="44" depart="1484.00" departLane="a87[0]_0" departPos="4.30" departSpeed="0.00" departDelay="0.33" arrival="1654.00" arrivalLane="b53a_0" arrivalPos="257.19" arrivalSpeed="14.18" duration="170.00" routeLength="1835.21" waitingTime="11.00" waitingCount="2" stopTime="0.00" timeLoss="40.28" rerouteNo="0" devices="vehroute_44 tripinfo_44 fcd_44" vType="DEFAULT_VEHTYPE" speedFactor="1.04" vaporized=""/>
    <tripinfo id="42" depart="1413.00" departLane="a36_0" departPos="5.10" departSpeed="0.00" departDelay="0.38" arrival="1672.00" arrivalLane="b47_0" arrivalPos="212.06" arrivalSpeed="14.11" duration="259.00" routeLength="2715.67" waitingTime="39.00" waitingCount="3" stopTime="0.00" timeLoss="75.41" rerouteNo="0" devices="vehroute_42 tripinfo_42 fcd_42" vType="DEFAULT_VEHTYPE" speedFactor="1.09" vaporized=""/>
    <tripinfo id="39" depart="1392.00" departLane="a161_0" departPos="5.10" departSpeed="0.00" departDelay="0.74" arrival="1693.00" arrivalLane="b2[1][0]_0" arrivalPos="284.76" arrivalSpeed="11.68" duration="301.00" routeLength="2464.73" waitingTime="68.00" waitingCount="3" stopTime="0.00" timeLoss="101.19" rerouteNo="0" devices="vehroute_39 tripinfo_39 fcd_39" vType="DEFAULT_VEHTYPE" speedFactor="0.90" vaporized=""/>
    <tripinfo id="38" depart="1391.00" departLane="a203[0]_0" departPos="5.10" departSpeed="0.00" departDelay="0.14" arrival="1733.00" arrivalLane="b2[1][1][1]b_0" arrivalPos="325.74" arrivalSpeed="14.77" duration="342.00" routeLength="2513.32" waitingTime="133.00" waitingCount="5" stopTime="0.00" timeLoss="176.07" rerouteNo="0" devices="vehroute_38 tripinfo_38 fcd_38" vType="DEFAULT_VEHTYPE" speedFactor="1.10" vaporized=""/>
    <tripinfo id="43" depart="1458.00" departLane="a203[0]_0" departPos="5.10" departSpeed="0.00" departDelay="0.73" arrival="1734.00" arrivalLane="b2[1][1][1]b_0" arrivalPos="325.74" arrivalSpeed="13.81" duration="276.00" routeLength="2513.32" waitingTime="69.00" waitingCount="3" stopTime="0.00" timeLoss="99.63" rerouteNo="0" devices="vehroute_43 tripinfo_43 fcd_43" vType="DEFAULT_VEHTYPE" speedFactor="1.04" vaporized=""/>
    <tripinfo id="40" depart="1394.00" departLane="a210_0" departPos="5.10" departSpeed="0.00" departDelay="0.52" arrival="1736.00" arrivalLane="b10_0" arrivalPos="224.30" arrivalSpeed="13.95" duration="342.00" routeLength="2833.68" waitingTime="103.00" waitingCount="4" stopTime="0.00" timeLoss="143.02" rerouteNo="0" devices="vehroute_40 tripinfo_40 fcd_40" vType="DEFAULT_VEHTYPE" speedFactor="1.03" vaporized=""/>
    <tripinfo id="41" depart="1396.00" departLane="a203[0]_0" departPos="5.10" departSpeed="0.00" departDelay="0.66" arrival="1738.00" arrivalLane="b2[1][1][1]b_0" arrivalPos="325.74" arrivalSpeed="12.47" duration="342.00" routeLength="2513.32" waitingTime="108.00" waitingCount="5" stopTime="0.00" timeLoss="151.02" rerouteNo="0" devices="vehroute_41 tripinfo_41 fcd_41" vType="DEFAULT_VEHTYPE" speedFactor="0.96" vaporized=""/>
    <tripinfo id="48" depart="1621.00" departLane="a78[0]_0" departPos="5.10" departSpeed="0.00" departDelay="0.55" arrival="1781.00" arrivalLane="b2[1][1][1]b_0" arrivalPos="325.74" arrivalSpeed="11.34" duration="160.00" routeLength="1757.08" waitingTime="0.00" waitingCount="0" stopTime="0.00" timeLoss="13.89" rerouteNo="0" devices="vehroute_48 tripinfo_48 fcd_48" vType="DEFAULT_VEHTYPE" speedFactor="0.88" vaporized=""/>
    <tripinfo id="47" depart="1596.00" departLane="a87[0]_0" departPos="4.30" departSpeed="0.00" departDelay="0.22" arrival="1805.00" arrivalLane="b53a_0" arrivalPos="257.19" arrivalSpeed="11.37" duration="209.00" routeLength="1839.70" waitingTime="33.00" waitingCount="2" stopTime="0.00" timeLoss="57.77" rerouteNo="0" devices="vehroute_47 tripinfo_47 fcd_47" vType="DEFAULT_VEHTYPE" speedFactor="0.90" vaporized=""/>
    <tripinfo id="46" depart="1550.00" departLane="a203[0]_0" departPos="5.10" departSpeed="0.00" departDelay="0.79" arrival="1860.00" arrivalLane="b2[1][1][1]b_0" arrivalPos="325.74" arrivalSpeed="13.70" duration="310.00" routeLength="2513.32" waitingTime="94.00" waitingCount="3" stopTime="0.00" timeLoss="126.67" rerouteNo="0" devices="vehroute_46 tripinfo_46 fcd_46" vType="DEFAULT_VEHTYPE" speedFactor="1.00" vaporized=""/>
    <tripinfo id="45" depart="1507.00" departLane="a3_0" departPos="5.10" departSpeed="0.00" departDelay="0.11" arrival="1880.00" arrivalLane="b10_0" arrivalPos="224.30" arrivalSpeed="13.87" duration="373.00" routeLength="3044.48" waitingTime="119.00" waitingCount="6" stopTime="0.00" timeLoss="170.05" rerouteNo="0" devices="vehroute_45 tripinfo_45 fcd_45" vType="DEFAULT_VEHTYPE" speedFactor="1.09" vaporized=""/>
    <tripinfo id="53" depart="1784.00" departLane="a87[0]_0" departPos="4.30" departSpeed="0.00" departDelay="0.37" arrival="1924.00" arrivalLane="b53a_0" arrivalPos="257.19" arrivalSpeed="14.11" duration="140.00" routeLength="1835.21" waitingTime="0.00" waitingCount="0" stopTime="0.00" timeLoss="17.16" rerouteNo="0" devices="vehroute_53 tripinfo_53 fcd_53" vType="DEFAULT_VEHTYPE" speedFactor="1.10" vaporized=""/>
    <tripinfo id="49" depart="1623.00" departLane="a203[0]_0" departPos="5.10" departSpeed="0.00" departDelay="0.77" arrival="1990.00" arrivalLane="b2[1][1][1]b_0" arrivalPos="325.74" arrivalSpeed="11.78" duration="367.00" routeLength="2513.32" waitingTime="117.00" waitingCount="4" stopTime="0.00" timeLoss="152.00" rerouteNo="0" devices="vehroute_49 tripinfo_49 fcd_49" vType="DEFAULT_VEHTYPE" speedFactor="0.85" vaporized=""/>
    <tripinfo id="50" depart="1664.00" departLane="a78[0]_0" departPos="5.10" departSpeed="0.00" departDelay="0.99" arrival="2036.00" arrivalLane="b4[1][1][1]_0" arrivalPos="171.54" arrivalSpeed="11.66" duration="372.00" routeLength="2453.17" waitingTime="115.00" waitingCount="5" stopTime="0.00" timeLoss="162.54" rerouteNo="0" devices="vehroute_50 tripinfo_50 fcd_50" vType="DEFAULT_VEHTYPE" speedFactor="0.85" vaporized=""/>
    <tripinfo id="51" depart="1734.00" departLane="a161_0" departPos="5.10" departSpeed="0.00" departDelay="0.11" arrival="2051.00" arrivalLane="b2[1][0]_0" arrivalPos="284.76" arrivalSpeed="15.89" duration="317.00" routeLength="2464.73" waitingTime="126.00" waitingCount="4" stopTime="0.00" timeLoss="163.50" rerouteNo="0" devices="vehroute_51 tripinfo_51 fcd_51" vType="DEFAULT_VEHTYPE" speedFactor="1.17" vaporized=""/>
    <tripinfo id="52" depart="1745.00" departLane="a69_0" departPos="5.10" departSpeed="0.00" departDelay="0.43" arrival="2054.00" arrivalLane="b11[0]_0" arrivalPos="90.93" arrivalSpeed="13.82" duration="309.00" routeLength="3053.48" waitingTime="48.00" waitingCount="3" stopTime="0.00" timeLoss="88.91" rerouteNo="0" devices="vehroute_52 tripinfo_52 fcd_52" vType="DEFAULT_VEHTYPE" speedFactor="1.02" vaporized=""/>
    <tripinfo id="54" depart="1798.00" departLane="a161_0" departPos="5.10" departSpeed="0.00" departDelay="0.40" arrival="2057.00" arrivalLane="b2[1][0]_0" arrivalPos="284.76" arrivalSpeed="13.80" duration="259.00" routeLength="2460.24" waitingTime="56.00" waitingCount="1" stopTime="0.00" timeLoss="79.68" rerouteNo="0" devices="vehroute_54 tripinfo_54 fcd_54" vType="DEFAULT_VEHTYPE" speedFactor="1.00" vaporized=""/>
    <tripinfo id="55" depart="1831.00" departLane="a87[0]_0" departPos="4.30" departSpeed="0.00" departDelay="0.11" arrival="2067.00" arrivalLane="b53a_0" arrivalPos="257.19" arrivalSpeed="13.43" duration="236.00" routeLength="1839.70" waitingTime="72.00" waitingCount="3" stopTime="0.00" timeLoss="100.57" rerouteNo="0" devices="vehroute_55 tripinfo_55 fcd_55" vType="DEFAULT_VEHTYPE" speedFactor="1.00" vaporized=""/>
    <tripinfo id="57" depart="1979.00" departLane="a87[0]_0" departPos="4.30" departSpeed="0.00" departDelay="0.38" arrival="2214.00" arrivalLane="b53a_0" arrivalPos="257.19" arrivalSpeed="15.84" duration="235.00" routeLength="1839.70" waitingTime="85.00" waitingCount="3" stopTime="0.00" timeLoss="116.58" rerouteNo="0" devices="vehroute_57 tripinfo_57 fcd_57" vType="DEFAULT_VEHTYPE" speedFactor="1.14" vaporized=""/>
    <tripinfo id="58" depart="2032.00" departLane="a87[0]_0" departPos="4.30" departSpeed="0.00" departDelay="0.01" arrival="2220.00" arrivalLane="b53a_0" arrivalPos="257.19" arrivalSpeed="14.01" duration="188.00" routeLength="1832.25" waitingTime="30.00" waitingCount="1" stopTime="0.00" timeLoss="55.69" rerouteNo="0" devices="vehroute_58 tripinfo_58 fcd_58" vType="DEFAULT_VEHTYPE" speedFactor="1.02" vaporized=""/>
    <tripinfo id="56" depart="1892.00" departLane="a13_0" departPos="5.10" departSpeed="0.00" departDelay="0.18" arrival="2271.00" arrivalLane="b9_0" arrivalPos="340.87" arrivalSpeed="12.39" duration="379.00" routeLength="2570.40" waitingTime="127.00" waitingCount="3" stopTime="0.00" timeLoss="169.46" rerouteNo="0" devices="vehroute_56 tripinfo_56 fcd_56" vType="DEFAULT_VEHTYPE" speedFactor="0.90" vaporized=""/>
    <tripinfo id="59" depart="2096.00" departLane="a78[0]_0" departPos="5.10" departSpeed="0.00" departDelay="0.27" arrival="2277.00" arrivalLane="b2[1][1][1]b_0" arrivalPos="325.74" arrivalSpeed="12.44" duration="181.00" routeLength="1757.08" waitingTime="26.00" waitingCount="2" stopTime="0.00" timeLoss="48.10" rerouteNo="0" devices="vehroute_59 tripinfo_59 fcd_59" vType="DEFAULT_VEHTYPE" speedFactor="0.97" vaporized=""/>
    <tripinfo id="61" depart="2225.00" departLane="a203[0]_0" departPos="5.10" departSpeed="0.00" departDelay="0.01" arrival="2450.00" arrivalLane="b2[1][1][1]b_0" arrivalPos="325.74" arrivalSpeed="14.89" duration="225.00" routeLength="2513.32" waitingTime="25.00" waitingCount="4" stopTime="0.00" timeLoss="61.37" rerouteNo="0" devices="vehroute_61 tripinfo_61 fcd_61" vType="DEFAULT_VEHTYPE" speedFactor="1.12" vaporized=""/>
    <tripinfo id="62" depart="2229.00" departLane="a203[0]_0" departPos="5.10" departSpeed="0.00" departDelay="0.79" arrival="2456.00" arrivalLane="b2[1][1][1]b_0" arrivalPos="325.74" arrivalSpeed="13.21" duration="227.00" routeLength="2513.32" waitingTime="12.00" waitingCount="3" stopTime="0.00" timeLoss="46.95" rerouteNo="0" devices="vehroute_62 tripinfo_62 fcd_62" vType="DEFAULT_VEHTYPE" speedFactor="1.02" vaporized=""/>
    <tripinfo id="69" depart="2361.00" departLane="a78[0]_0" departPos="5.10" departSpeed="0.00" departDelay="0.39" arrival="2507.00" arrivalLane="b2[1][1][1]b_0" arrivalPos="325.74" arrivalSpeed="14.01" duration="146.00" routeLength="1757.08" waitingTime="4.00" waitingCount="1" stopTime="0.00" timeLoss="20.67" rerouteNo="0" devices="vehroute_69 tripinfo_69 fcd_69" vType="DEFAULT_VEHTYPE" speedFactor="1.02" vaporized=""/>
    <tripinfo id="60" depart="2212.00" departLane="b2[1][0]_0" departPos="5.10" departSpeed="0.00" departDelay="1.31" arrival="2530.00" arrivalLane="a77[0]_0" arrivalPos="66.48" arrivalSpeed="14.60" duration="318.00" routeLength="2553.56" waitingTime="107.00" waitingCount="2" stopTime="0.00" timeLoss="143.17" rerouteNo="0" devices="vehroute_60 tripinfo_60 fcd_60" vType="DEFAULT_VEHTYPE" speedFactor="1.08" vaporized=""/>
    <tripinfo id="63" depart="2231.00" departLane="a87[0]_0" departPos="4.30" departSpeed="0.00" departDelay="0.81" arrival="2545.00" arrivalLane="b53a_0" arrivalPos="257.19" arrivalSpeed="13.21" duration="314.00" routeLength="1839.70" waitingTime="141.00" waitingCount="4" stopTime="0.00" timeLoss="177.56" rerouteNo="0" devices="vehroute_63 tripinfo_63 fcd_63" vType="DEFAULT_VEHTYPE" speedFactor="0.99" vaporized=""/>
    <tripinfo id="64" depart="2266.00" departLane="a210_0" departPos="5.10" departSpeed="0.00" departDelay="0.52" arrival="2551.00" arrivalLane="b10_0" arrivalPos="224.30" arrivalSpeed="11.97" duration="285.00" routeLength="2833.68" waitingTime="35.00" waitingCount="3" stopTime="0.00" timeLoss="66.66" rerouteNo="0" devices="vehroute_64 tripinfo_64 fcd_64" vType="DEFAULT_VEHTYPE" speedFactor="0.94" vaporized=""/>
    <tripinfo id="65" depart="2280.00" departLane="a87[0]_0" departPos="4.30" departSpeed="0.00" departDelay="0.52" arrival="2551.00" arrivalLane="b53a_0" arrivalPos="257.19" arrivalSpeed="11.71" duration="271.00" routeLength="1832.25" waitingTime="88.00" waitingCount="2" stopTime="0.00" timeLoss="117.96" rerouteNo="0" devices="vehroute_65 tripinfo_65 fcd_65" vType="DEFAULT_VEHTYPE" speedFactor="0.88" vaporized=""/>