<?xml version="1.0" encoding="UTF-8"?>

<!-- generated on 2025-03-21 17:16:09 by Eclipse SUMO sumo Version 1.21.0
<sumoConfiguration xmlns:xsi="http://www.w3.org/2001/XMLSchema-instance" xsi:noNamespaceSchemaLocation="http://sumo.dlr.de/xsd/sumoConfiguration.xsd">

    <input>
        <net-file value="${STATICPATH}/joined_lanes.net.xml"/>
        <route-files value="${SIMULATIONPATH}/generatedRoutes.rou.xml"/>
        <additional-files value="${STATICPATH}/detectors.add.xml,${STATICPATH}/joined_vtypes.add.xml,${STATICPATH}/joined_tls.add.xml"/>
    </input>

    <output>
        <fcd-output value="${SIMULATIONPATH}/fcd.xml"/>
        <queue-output value="${SIMULATIONPATH}/queue.xml"/>
        <summary-output value="${SIMULATIONPATH}/summary.xml"/>
        <tripinfo-output value="${SIMULATIONPATH}/tripinfos.xml"/>
        <vehroute-output value="${SIMULATIONPATH}/vehroute.xml"/>
        <save-state.prefix value="configs\state"/>
    </output>

    <processing>
        <ignore-junction-blocker value="1"/>
        <ignore-route-errors value="true"/>
        <time-to-teleport value="-1"/>
    </processing>

    <report>
        <log value="C:/Users/fabio/Desktop/sumo_log.txt"/>
        <no-step-log value="true"/>
    </report>

    <emissions>
        <phemlight-path value="configs\./PHEMlight/"/>
    </emissions>

    <traci_server>
        <remote-port value="60010"/>
    </traci_server>

</sumoConfiguration>
-->

<routes xmlns:xsi="http://www.w3.org/2001/XMLSchema-instance" xsi:noNamespaceSchemaLocation="http://sumo.dlr.de/xsd/routes_file.xsd">
    <vehicle id="0" depart="129.00" arrival="315.00">
        <route edges="a87[0] a20001+87[1][0] a87[1][1] am90 a171 a161 a122 a1b a1 a204a[0] a124 b12 b53 b53a"/>
    </vehicle>

    <vehicle id="1" depart="137.00" arrival="321.00">
        <route edges="a87[0] a20001+87[1][0] a87[1][1] am90 a171 a161 a122 a1b a1 a204a[0] a124 b12 b53 b53a"/>
    </vehicle>

    <vehicle id="2" depart="154.00" arrival="365.00">
        <route edges="a203[0] b12 b50[0] b50[1] b50[1]a a181 a18 a17 a71 b2[0] b2[1][0] b2[1][1][0] b2[1][1][1] b2[1][1][1]b"/>
    </vehicle>

    <vehicle id="3" depart="173.00" arrival="455.00">
        <route edges="a161 a122 a1b a1 a204a[0] a124 b12 b50[0] b50[1] b50[1]a a181 a18 a17 a71 b2[0] b2[1][0]"/>
    </vehicle>

    <vehicle id="5" depart="269.00" arrival="460.00">
        <route edges="a87[0] a20001+87[1][0] a87[1][1] am90 a171 a161 a122 a1b a1 a204a[0] a124 b12 b53 b53a"/>
    </vehicle>

    <vehicle id="4" depart="233.00" arrival="526.00">
        <route edges="a210 a43[0] a43[1] a201 a201c a204a[0] a124 b12 b56[0] b56[1][0] b56[1][1] b5[1][0]+66 b5[1][1][1] b8 b10"/>
    </vehicle>

    <vehicle id="6" depart="276.00" arrival="579.00">
        <route edges="a161 a122 a1b a1 a204a[0] a124 b12 b50[0] b50[1] b50[1]a a181 a18 a17 a71 b2[0] b2[1][0]"/>
    </vehicle>

    <vehicle id="8" depart="380.00" arrival="581.00">
        <route edges="a87[0] a20001+87[1][0] a87[1][1] am90 a171 a161 a122 a1b a1 a204a[0] a124 b12 b53 b53a"/>
    </vehicle>

    <vehicle id="10" depart="458.00" arrival="677.00">
        <route edges="a87[0] a20001+87[1][0] a87[1][1] am90 a171 a161 a122 a1b a1 a204a[0] a124 b12 b53 b53a"/>
    </vehicle>

    <vehicle id="13" depart="538.00" arrival="724.00">
        <route edges="a78[0] a56a a56b a77bc a77cd a53cd a53[0] a53[1][0] a79 a68 a11 b38[0] b38[0]a b38[1][0] b38[1][1] b38[1][1]a b56[1][0] b56[1][1] b5[1][0]+66 b5[1][1][1] b8 b4[1][1][1]"/>
    </vehicle>

    <vehicle id="11" depart="480.00" arrival="764.00">
        <route edges="a203[0] b12 b50[0] b50[1] b50[1]a a181 a18 a17 a71 b2[0] b2[1][0] b2[1][1][0] b2[1][1][1] b2[1][1][1]b"/>
    </vehicle>

    <vehicle id="12" depart="483.00" arrival="764.00">
        <route edges="a203[0] b12 b50[0] b50[1] b50[1]a a181 a18 a17 a71 b2[0] b2[1][0] b2[1][1][0] b2[1][1][1] b2[1][1][1]b"/>
    </vehicle>

    <vehicle id="9" depart="381.00" arrival="770.00">
        <route edges="a203[0] b12 b50[0] b50[1] b50[1]a a181 a18 a17 a71 b2[0] b2[1][0] b2[1][1][0] b2[1][1][1] b2[1][1][1]b"/>
    </vehicle>

    <vehicle id="7" depart="368.00" arrival="771.00">
        <route edges="a203[0] b12 b50[0] b50[1] b50[1]a a181 a18 a17 a71 b2[0] b2[1][0] b2[1][1][0] b2[1][1][1] b2[1][1][1]b"/>
    </vehicle>

    <vehicle id="14" depart="615.00" arrival="835.00">
        <route edges="a87[0] a20001+87[1][0] a87[1][1] am90 a171 a161 a122 a1b a1 a204a[0] a124 b12 b53 b53a"/>
    </vehicle>

    <vehicle id="15" depart="626.00" arrival="937.00">
        <route edges="a210 a43[0] a43[1] a201 a201c a204a[0] a124 b12 b56[0] b56[1][0] b56[1][1] b5[1][0]+66 b5[1][1][1] b8 b10"/>
    </vehicle>

    <vehicle id="18" depart="687.00" arrival="939.00">
        <route edges="b2[1][0] b24 b23 b27 b36 b39[1][1][1] b45 a67 a80 a127 a77[1][0] a77ab a77bc a77cd a53cd a53[0] a78[1][1] a189[0] a189[1][0]+20000 a189[1][1] a188 a87[0] a20001+87[1][0] a87[1][1] am90 am91 a88 a187 a190 a77[0]"/>
    </vehicle>

    <vehicle id="19" depart="691.00" arrival="944.00">
        <route edges="a161 a122 a1b a1 a204a[0] a124 b12 b50[0] b50[1] b50[1]a a181 a18 a17 a71 b2[0] b2[1][0]"/>
    </vehicle>

    <vehicle id="17" depart="645.00" arrival="952.00">
        <route edges="a161 a122 a1b a1 a204a[0] a124 b12 b50[0] b50[1] b50[1]a a181 a18 a17 a71 b2[0] b2[1][0]"/>
    </vehicle>

    <vehicle id="20" depart="716.00" arrival="991.00">
        <route edges="a87[0] a20001+87[1][0] a87[1][1] am90 a171 a161 a122 a1b a1 a204a[0] a124 b12 b53 b53a"/>
    </vehicle>

    <vehicle id="27" depart="895.00" arrival="1054.00">
        <route edges="a78[0] a56a a56b a77bc a77cd a53cd a53[0] a53[1][0] a79 a68 a11 b2[0] b2[1][0] b2[1][1][0] b2[1][1][1] b2[1][1][1]b"/>
    </vehicle>

    <vehicle id="24" depart="825.00" arrival="1068.00">
        <route edges="a67 a80 a127 a77[1][0] a77ab a77bc a77cd a53cd a53[0] a53[1][0] a79 a68 a11 b38[0] b38[0]a b38[1][0] b38[1][1] b38[1][1]a b56[1][0] b56[1][1] b70"/>
    </vehicle>

    <vehicle id="22" depart="795.00" arrival="1074.00">
        <route edges="a161 a122 a1b a1 a204a[0] a124 b12 b50[0] b50[1] b50[1]a a181 a18 a17 a71 b2[0] b2[1][0]"/>
    </vehicle>

    <vehicle id="28" depart="912.00" arrival="1097.00">
        <route edges="a87[0] a20001+87[1][0] a87[1][1] am90 a171 a161 a122 a1b a1 a204a[0] a124 b12 b53 b53a"/>
    </vehicle>

    <vehicle id="21" depart="763.00" arrival="1098.00">
        <route edges="a3 a2 a202 a34 a134 a134b a133 a31 a201 a201c a204a[0] a124 b12 b56[0] b56[1][0] b56[1][1] b5[1][0]+66 b5[1][1][1] b8 b10"/>
    </vehicle>

    <vehicle id="16" depart="637.00" arrival="1102.00">
        <route edges="a3 a2 a202 a34 a134 a134b a133 a31 a201 a201c a204a[0] a124 b12 b56[0] b56[1][0] b56[1][1] b5[1][0]+66 b5[1][1][1] b8 b10"/>
    </vehicle>

    <vehicle id="23" depart="818.00" arrival="1156.00">
        <route edges="a69 a161 a122 a1b a1 a204a[0] a124 b12 b56[0] b39[0] b39[1][0] b39[1][1][0] b37 b26 b26.-170 b17[0] b17[1] b11[0]"/>
    </vehicle>

    <vehicle id="26" depart="877.00" arrival="1158.00">
        <route edges="a69 a161 a122 a1b a1 a204a[0] a124 b12 b56[0] b39[0] b39[1][0] b39[1][1][0] b37 b26 b26.-170 b17[0] b17[1] b11[0]"/>
    </vehicle>

    <vehicle id="29" depart="956.00" arrival="1159.00">
        <route edges="a87[0] a20001+87[1][0] a87[1][1] am90 a171 a161 a122 a1b a1 a204a[0] a124 b12 b53 b53a"/>
    </vehicle>

    <vehicle id="25" depart="838.00" arrival="1172.00">
        <route edges="a212 a10 a13 a104 a24 a22 a59 a53cd a53[0] a53[1][0] a79 a68 a11 b38[0] b38[0]a b38[1][0] b38[1][1] b38[1][1]a b56[1][0] b56[1][1] b5[1][0]+66 b5[1][1][1] b8 b3[1] b3[1]b"/>
    </vehicle>

    <vehicle id="30" depart="958.00" arrival="1212.00">
        <route edges="a69 a161 a122 a1b a1 a204a[0] a124 b12 b56[0] b39[0] b39[1][0] b39[1][1][0] b37 b26 b26.-170 b17[0] b17[1] b11[0]"/>
    </vehicle>

    <vehicle id="31" depart="958.00" arrival="1217.00">
        <route edges="a203[0] b12 b50[0] b50[1] b50[1]a a181 a18 a17 a71 b2[0] b2[1][0] b2[1][1][0] b2[1][1][1] b2[1][1][1]b"/>
    </vehicle>

    <vehicle id="33" depart="1071.00" arrival="1242.00">
        <route edges="a87[0] a20001+87[1][0] a87[1][1] am90 a171 a161 a122 a1b a1 a204a[0] a124 b12 b53 b53a"/>
    </vehicle>

    <vehicle id="32" depart="1006.00" arrival="1245.00">
        <route edges="a13 a104 a24 a22 a59 a53cd a53[0] a53[1][0] a79 a68 a11 b38[0] b38[0]a b37 b26 b26.-170 b15 b13[1] b4[0] b4[1][1][0] b9"/>
    </vehicle>

    <vehicle id="35" depart="1276.00" arrival="1444.00">
        <route edges="a87[0] a20001+87[1][0] a87[1][1] am90 a171 a161 a122 a1b a1 a204a[0] a124 b12 b53 b53a"/>
    </vehicle>

    <vehicle id="34" depart="1165.00" arrival="1486.00">
        <route edges="a203[0] b12 b50[0] b50[1] b50[1]a a181 a18 a17 a71 b2[0] b2[1][0] b2[1][1][0] b2[1][1][1] b2[1][1][1]b"/>
    </vehicle>

    <vehicle id="37" depart="1338.00" arrival="1574.00">
        <route edges="a212 a10 a13 a104 a24 a22 a59 a53cd a53[0] a53[1][0] a79 a68 a11 b38[0] b38[0]a b38[1][0] b38[1][1] b38[1][1]a b56[1][0] b56[1][1] b5[1][0]+66 b5[1][1][1] b8 b3[1] b3[1]b"/>
    </vehicle>

    <vehicle id="36" depart="1278.00" arrival="1611.00">
        <route edges="a203[0] b12 b50[0] b50[1] b50[1]a a181 a18 a17 a71 b2[0] b2[1][0] b2[1][1][0] b2[1][1][1] b2[1][1][1]b"/>
    </vehicle>

    <vehicle id="44" depart="1484.00" arrival="1654.00">
        <route edges="a87[0] a20001+87[1][0] a87[1][1] am90 a171 a161 a122 a1b a1 a204a[0] a124 b12 b53 b53a"/>
    </vehicle>

    <vehicle id="42" depart="1413.00" arrival="1672.00">
        <route edges="a36 a40 a153 a87[0] a20001+87[1][0] a87[1][1] am90 a171 a161 a122 a1b a1 a204a[0] a124 b12 b50[0] b50[1] b50[1]a b47"/>
    </vehicle>

    <vehicle id="39" depart="1392.00" arrival="1693.00">
        <route edges="a161 a122 a1b a1 a204a[0] a124 b12 b50[0] b50[1] b50[1]a a181 a18 a17 a71 b2[0] b2[1][0]"/>
    </vehicle>

    <vehicle id="38" depart="1391.00" arrival="1733.00">
        <route edges="a203[0] b12 b50[0] b50[1] b50[1]a a181 a18 a17 a71 b2[0] b2[1][0] b2[1][1][0] b2[1][1][1] b2[1][1][1]b"/>
    </vehicle>

    <vehicle id="43" depart="1458.00" arrival="1734.00">
        <route edges="a203[0] b12 b50[0] b50[1] b50[1]a a181 a18 a17 a71 b2[0] b2[1][0] b2[1][1][0] b2[1][1][1] b2[1][1][1]b"/>
    </vehicle>

    <vehicle id="40" depart="1394.00" arrival="1736.00">
        <route edges="a210 a43[0] a43[1] a201 a201c a204a[0] a124 b12 b56[0] b56[1][0] b56[1][1] b5[1][0]+66 b5[1][1][1] b8 b10"/>
    </vehicle>

    <vehicle id="41" depart="1396.00" arrival="1738.00">
        <route edges="a203[0] b12 b50[0] b50[1] b50[1]a a181 a18 a17 a71 b2[0] b2[1][0] b2[1][1][0] b2[1][1][1] b2[1][1][1]b"/>
    </vehicle>

    <vehicle id="48" depart="1621.00" arrival="1781.00">
        <route edges="a78[0] a56a a56b a77bc a77cd a53cd a53[0] a53[1][0] a79 a68 a11 b2[0] b2[1][0] b2[1][1][0] b2[1][1][1] b2[1][1][1]b"/>
    </vehicle>

    <vehicle id="47" depart="1596.00" arrival="1805.00">
        <route edges="a87[0] a20001+87[1][0] a87[1][1] am90 a171 a161 a122 a1b a1 a204a[0] a124 b12 b53 b53a"/>
    </vehicle>

    <vehicle id="46" depart="1550.00" arrival="1860.00">
        <route edges="a203[0] b12 b50[0] b50[1] b50[1]a a181 a18 a17 a71 b2[0] b2[1][0] b2[1][1][0] b2[1][1][1] b2[1][1][1]b"/>
    </vehicle>

    <vehicle id="45" depart="1507.00" arrival="1880.00">
        <route edges="a3 a2 a202 a34 a134 a134b a133 a31 a201 a201c a204a[0] a124 b12 b56[0] b56[1][0] b56[1][1] b5[1][0]+66 b5[1][1][1] b8 b10"/>
    </vehicle>

    <vehicle id="53" depart="1784.00" arrival="1924.00">
        <route edges="a87[0] a20001+87[1][0] a87[1][1] am90 a171 a161 a122 a1b a1 a204a[0] a124 b12 b53 b53a"/>
    </vehicle>

    <vehicle id="49" depart="1623.00" arrival="1990.00">
        <route edges="a203[0] b12 b50[0] b50[1] b50[1]a a181 a18 a17 a71 b2[0] b2[1][0] b2[1][1][0] b2[1][1][1] b2[1][1][1]b"/>
    </vehicle>

    <vehicle id="50" depart="1664.00" arrival="2036.00">
        <route edges="a78[0] a56a a56b a77bc a77cd a53cd a53[0] a53[1][0] a79 a68 a11 b38[0] b38[0]a b38[1][0] b38[1][1] b38[1][1]a b56[1][0] b56[1][1] b5[1][0]+66 b5[1][1][1] b8 b4[1][1][1]"/>
    </vehicle>

    <vehicle id="51" depart="1734.00" arrival="2051.00">
        <route edges="a161 a122 a1b a1 a204a[0] a124 b12 b50[0] b50[1] b50[1]a a181 a18 a17 a71 b2[0] b2[1][0]"/>
    </vehicle>

    <vehicle id="52" depart="1745.00" arrival="2054.00">
        <route edges="a69 a161 a122 a1b a1 a204a[0] a124 b12 b56[0] b39[0] b39[1][0] b39[1][1][0] b37 b26 b26.-170 b17[0] b17[1] b11[0]"/>
    </vehicle>

    <vehicle id="54" depart="1798.00" arrival="2057.00">
        <route edges="a161 a122 a1b a1 a204a[0] a124 b12 b50[0] b50[1] b50[1]a a181 a18 a17 a71 b2[0] b2[1][0]"/>
    </vehicle>

    <vehicle id="55" depart="1831.00" arrival="2067.00">
        <route edges="a87[0] a20001+87[1][0] a87[1][1] am90 a171 a161 a122 a1b a1 a204a[0] a124 b12 b53 b53a"/>
    </vehicle>

    <vehicle id="57" depart="1979.00" arrival="2214.00">
        <route edges="a87[0] a20001+87[1][0] a87[1][1] am90 a171 a161 a122 a1b a1 a204a[0] a124 b12 b53 b53a"/>
    </vehicle>

    <vehicle id="58" depart="2032.00" arrival="2220.00">
        <route edges="a87[0] a20001+87[1][0] a87[1][1] am90 a171 a161 a122 a1b a1 a204a[0] a124 b12 b53 b53a"/>
    </vehicle>

    <vehicle id="56" depart="1892.00" arrival="2271.00">
        <route edges="a13 a104 a24 a22 a59 a53cd a53[0] a53[1][0] a79 a68 a11 b38[0] b38[0]a b37 b26 b26.-170 b15 b13[1] b4[0] b4[1][1][0] b9"/>
    </vehicle>

    <vehicle id="59" depart="2096.00" arrival="2277.00">
        <route edges="a78[0] a56a a56b a77bc a77cd a53cd a53[0] a53[1][0] a79 a68 a11 b2[0] b2[1][0] b2[1][1][0] b2[1][1][1] b2[1][1][1]b"/>
    </vehicle>

    <vehicle id="61" depart="2225.00" arrival="2450.00">
        <route edges="a203[0] b12 b50[0] b50[1] b50[1]a a181 a18 a17 a71 b2[0] b2[1][0] b2[1][1][0] b2[1][1][1] b2[1][1][1]b"/>
    </vehicle>

    <vehicle id="62" depart="2229.00" arrival="2456.00">
        <route edges="a203[0] b12 b50[0] b50[1] b50[1]a a181 a18 a17 a71 b2[0] b2[1][0] b2[1][1][0] b2[1][1][1] b2[1][1][1]b"/>
    </vehicle>

    <vehicle id="69" depart="2361.00" arrival="2507.00">
        <route edges="a78[0] a56a a56b a77bc a77cd a53cd a53[0] a53[1][0] a79 a68 a11 b2[0] b2[1][0] b2[1][1][0] b2[1][1][1] b2[1][1][1]b"/>
    </vehicle>

    <vehicle id="60" depart="2212.00" arrival="2530.00">
        <route edges="b2[1][0] b24 b23 b27 b36 b39[1][1][1] b45 a67 a80 a127 a77[1][0] a77ab a77bc a77cd a53cd a53[0] a78[1][1] a189[0] a189[1][0]+20000 a189[1][1] a188 a87[0] a20001+87[1][0] a87[1][1] am90 am91 a88 a187 a190 a77[0]"/>
    </vehicle>

    <vehicle id="63" depart="2231.00" arrival="2545.00">
        <route edges="a87[0] a20001+87[1][0] a87[1][1] am90 a171 a161 a122 a1b a1 a204a[0] a124 b12 b53 b53a"/>
    </vehicle>

    <vehicle id="64" depart="2266.00" arrival="2551.00">
        <route edges="a210 a43[0] a43[1] a201 a201c a204a[0] a124 b12 b56[0] b56[1][0] b56[1][1] b5[1][0]+66 b5[1][1][1] b8 b10"/>
    </vehicle>

    <vehicle id="65" depart="2280.00" arrival="2551.00">
        <route edges="a87[0] a20001+87[1][0] a87[1][1] am90 a171 a161 a122 a1b a1 a204a[0] a124 b12 b53 b53a"/>
    </vehicle>

    <vehicle id="70" depart="2372.00" arrival="2603.00">
        <route edges="a188 a87[0] a20001+87[1][0] a87[1][1] am90 am91 a88 a187 a191 a17 a71 b38[0] b38[0]a b38[1][0] b38[1][1] b38[1][1]a b56[1][0] b56[1][1] b70"/>
    </vehicle>

    <vehicle id="68" depart="2355.00" arrival="2671.00">
        <route edges="a161 a122 a1b a1 a204a[0] a124 b12 b50[0] b50[1] b50[1]a a181 a18 a17 a71 b2[0] b2[1][0]"/>
    </vehicle>

    <vehicle id="66" depart="2326.00" arrival="2678.00">
        <route edges="a210 a43[0] a43[1] a201 a201c a204a[0] a124 b12 b56[0] b56[1][0] b56[1][1] b5[1][0]+66 b5[1][1][1] b8 b10"/>
    </vehicle>

    <vehicle id="67" depart="2347.00" arrival="2680.00">
        <route edges="a3 a2 a202 a34 a134 a134b a133 a31 a201 a201c a204a[0] a124 b12 b56[0] b56[1][0] b56[1][1] b5[1][0]+66 b5[1][1][1] b8 b10"/>
    </vehicle>

    <vehicle id="71" depart="2373.00" arrival="2681.00">
        <route edges="a210 a43[0] a43[1] a201 a201c a204a[0] a124 b12 b56[0] b56[1][0] b56[1][1] b5[1][0]+66 b5[1][1][1] b8 b10"/>
    </vehicle>

    <vehicle id="73" depart="2490.00" arrival="2726.00">
        <route edges="a203[0] b12 b50[0] b50[1] b50[1]a a181 a18 a17 a71 b2[0] b2[1][0] b2[1][1][0] b2[1][1][1] b2[1][1][1]b"/>
    </vehicle>

    <vehicle id="72" depart="2452.00" arrival="2786.00">
        <route edges="b2[1][0] b24 b23 b27 b36 b39[1][1][1] b45 a67 a80 a127 a77[1][0] a77ab a77bc a77cd a53cd a53[0] a78[1][1] a189[0] a189[1][0]+20000 a189[1][1] a188 a87[0] a20001+87[1][0] a87[1][1] am90 am91 a88 a187 a190 a77[0]"/>
    </vehicle>

    <vehicle id="76" depart="2716.00" arrival="2900.00">
        <route edges="a78[0] a56a a56b a77bc a77cd a53cd a53[0] a53[1][0] a79 a68 a11 b38[0] b38[0]a b38[1][0] b38[1][1] b38[1][1]a b35[1][0] b50[0] b50[1] b50[1]a b47"/>
    </vehicle>

    <vehicle id="74" depart="2608.00" arrival="2919.00">
        <route edges="a161 a122 a1b a1 a204a[0] a124 b12 b50[0] b50[1] b50[1]a a181 a18 a17 a71 b2[0] b2[1][0]"/>
    </vehicle>

    <vehicle id="78" depart="2818.00" arrival="2988.00">
        <route edges="a87[0] a20001+87[1][0] a87[1][1] am90 a171 a161 a122 a1b a1 a204a[0] a124 b12 b53 b53a"/>
    </vehicle>

    <vehicle id="75" depart="2687.00" arrival="3005.00">
        <route edges="a69 a161 a122 a1b a1 a204a[0] a124 b12 b56[0] b39[0] b39[1][0] b39[1][1][0] b37 b26 b26.-170 b17[0] b17[1] b11[0]"/>
    </vehicle>

    <vehicle id="79" depart="2822.00" arrival="3008.00">
        <route edges="a78[0] a56a a56b a77bc a77cd a53cd a53[0] a53[1][0] a79 a68 a11 b2[0] b2[1][0] b2[1][1][0] b2[1][1][1] b2[1][1][1]b"/>
    </vehicle>

    <vehicle id="81" depart="2852.00" arrival="3066.00">
        <route edges="a78[0] a56a a56b a77bc a77cd a53cd a53[0] a53[1][0] a79 a68 a11 b38[0] b38[0]a b38[1][0] b38[1][1] b38[1][1]a b35[1][0] b50[0] b50[1] b50[1]a b47"/>
    </vehicle>

    <vehicle id="77" depart="2813.00" arrival="3076.00">
        <route edges="a203[0] b12 b50[0] b50[1] b50[1]a a181 a18 a17 a71 b2[0] b2[1][0] b2[1][1][0] b2[1][1][1] b2[1][1][1]b"/>
    </vehicle>

    <vehicle id="84" depart="2919.00" arrival="3139.00">
        <route edges="a87[0] a20001+87[1][0] a87[1][1] am90 a171 a161 a122 a1b a1 a204a[0] a124 b12 b53 b53a"/>
    </vehicle>

    <vehicle id="82" depart="2888.00" arrival="3144.00">
        <route edges="a87[0] a20001+87[1][0] a87[1][1] am90 a171 a161 a122 a1b a1 a204a[0] a124 b12 b53 b53a"/>
    </vehicle>

    <vehicle id="83" depart="2912.00" arrival="3175.00">
        <route edges="a78[0] a56a a56b a77bc a77cd a53cd a53[0] a53[1][0] a79 a68 a11 b38[0] b38[0]a b37 b26 b26.-170 b18 b20+19a ba1[1]"/>
    </vehicle>

    <vehicle id="85" depart="2971.00" arrival="3221.00">
        <route edges="a13 a104 a24 a22 a59 a53cd a53[0] a53[1][0] a79 a68 a11 b38[0] b38[0]a b37 b26 b26.-170 b15 b13[1] b4[0] b4[1][1][0] b9"/>
    </vehicle>

    <vehicle id="80" depart="2846.00" arrival="3261.00">
        <route edges="a3 a2 a202 a34 a134 a134b a133 a31 a201 a201c a204a[0] a124 b12 b56[0] b56[1][0] b56[1][1] b5[1][0]+66 b5[1][1][1] b8 b10"/>
    </vehicle>

    <vehicle id="87" depart="3053.00" arrival="3269.00">
        <route edges="a78[0] a56a a56b a77bc a77cd a53cd a53[0] a53[1][0] a79 a68 a11 b38[0] b38[0]a b38[1][0] b38[1][1] b38[1][1]a b35[1][0] b50[0] b50[1] b50[1]a b47"/>
    </vehicle>

    <vehicle id="86" depart="3004.00" arrival="3281.00">
        <route edges="a87[0] a20001+87[1][0] a87[1][1] am90 a171 a161 a122 a1b a1 a204a[0] a124 b12 b53 b53a"/>
    </vehicle>

    <vehicle id="89" depart="3113.00" arrival="3438.00">
        <route edges="a203[0] b12 b50[0] b50[1] b50[1]a a181 a18 a17 a71 b2[0] b2[1][0] b2[1][1][0] b2[1][1][1] b2[1][1][1]b"/>
    </vehicle>

    <vehicle id="88" depart="3095.00" arrival="3439.00">
        <route edges="a203[0] b12 b50[0] b50[1] b50[1]a a181 a18 a17 a71 b2[0] b2[1][0] b2[1][1][0] b2[1][1][1] b2[1][1][1]b"/>
    </vehicle>

    <vehicle id="91" depart="3202.00" arrival="3462.00">
        <route edges="a203[0] b12 b50[0] b50[1] b50[1]a a181 a18 a17 a71 b2[0] b2[1][0] b2[1][1][0] b2[1][1][1] b2[1][1][1]b"/>
    </vehicle>

    <vehicle id="90" depart="3177.00" arrival="3532.00">
        <route edges="a161 a122 a1b a1 a204a[0] a124 b12 b50[0] b50[1] b50[1]a a181 a18 a17 a71 b2[0] b2[1][0]"/>
    </vehicle>

    <vehicle id="92" depart="3350.00" arrival="3534.00">
        <route edges="a87[0] a20001+87[1][0] a87[1][1] am90 a171 a161 a122 a1b a1 a204a[0] a124 b12 b53 b53a"/>
    </vehicle>

    <vehicle id="96" depart="3470.00" arrival="3690.00">
        <route edges="a78[0] a56a a56b a77bc a77cd a53cd a53[0] a53[1][0] a79 a68 a11 b38[0] b38[0]a b38[1][0] b38[1][1] b38[1][1]a b56[1][0] b56[1][1] b5[1][0]+66 b5[1][1][1] b8 b4[1][1][1]"/>
    </vehicle>

    <vehicle id="94" depart="3396.00" arrival="3691.00">
        <route edges="a203[0] b12 b50[0] b50[1] b50[1]a a181 a18 a17 a71 b2[0] b2[1][0] b2[1][1][0] b2[1][1][1] b2[1][1][1]b"/>
    </vehicle>

    <vehicle id="95" depart="3443.00" arrival="3692.00">
        <route edges="a203[0] b12 b50[0] b50[1] b50[1]a a181 a18 a17 a71 b2[0] b2[1][0] b2[1][1][0] b2[1][1][1] b2[1][1][1]b"/>
    </vehicle>

    <vehicle id="93" depart="3393.00" arrival="3697.00">
        <route edges="a203[0] b12 b50[0] b50[1] b50[1]a a181 a18 a17 a71 b2[0] b2[1][0] b2[1][1][0] b2[1][1][1] b2[1][1][1]b"/>
    </vehicle>

    <vehicle id="97" depart="3495.00" arrival="3758.00">
        <route edges="a87[0] a20001+87[1][0] a87[1][1] am90 a171 a161 a122 a1b a1 a204a[0] a124 b12 b53 b53a"/>
    </vehicle>

    <vehicle id="98" depart="3558.00" arrival="3815.00">
        <route edges="a203[0] b12 b50[0] b50[1] b50[1]a a181 a18 a17 a71 b2[0] b2[1][0] b2[1][1][0] b2[1][1][1] b2[1][1][1]b"/>
    </vehicle>

    <vehicle id="99" depart="3570.00" arrival="3827.00">
        <route edges="a78[0] a56a a56b a77bc a77cd a53cd a53[0] a53[1][0] a79 a68 a11 b38[0] b38[0]a b38[1][0] b38[1][1] b38[1][1]a b56[1][0] b56[1][1] b5[1][0]+66 b5[1][1][1] b8 b4[1][1][1]"/>
    </vehicle>

</routes>
