<?xml version="1.0" encoding="UTF-8"?>

<!-- generated on 2025-03-21 17:59:00 by Eclipse SUMO sumo Version 1.21.0
<sumoConfiguration xmlns:xsi="http://www.w3.org/2001/XMLSchema-instance" xsi:noNamespaceSchemaLocation="http://sumo.dlr.de/xsd/sumoConfiguration.xsd">

    <input>
        <net-file value="${STATICPATH}/joined_lanes.net.xml"/>
        <route-files value="${SIMULATIONPATH}/generatedRoutes.rou.xml"/>
        <additional-files value="${STATICPATH}/detectors.add.xml,${STATICPATH}/joined_vtypes.add.xml,${STATICPATH}/joined_tls.add.xml"/>
    </input>

    <output>
        <fcd-output value="${SIMULATIONPATH}/fcd.xml"/>
        <queue-output value="${SIMULATIONPATH}/queue.xml"/>
        <summary-output value="${SIMULATIONPATH}/summary.xml"/>
        <tripinfo-output value="${SIMULATIONPATH}/tripinfos.xml"/>
        <vehroute-output value="${SIMULATIONPATH}/vehroute.xml"/>
        <save-state.prefix value="configs\state"/>
    </output>

    <processing>
        <ignore-junction-blocker value="1"/>
        <ignore-route-errors value="true"/>
        <time-to-teleport value="-1"/>
    </processing>

    <report>
        <log value="C:/Users/fabio/Desktop/sumo_log.txt"/>
        <no-step-log value="true"/>
    </report>

    <emissions>
        <phemlight-path value="configs\./PHEMlight/"/>
    </emissions>

    <traci_server>
        <remote-port value="60261"/>
    </traci_server>

</sumoConfiguration>
-->

<tripinfos xmlns:xsi="http://www.w3.org/2001/XMLSchema-instance" xsi:noNamespaceSchemaLocation="http://sumo.dlr.de/xsd/tripinfo_file.xsd">
    <tripinfo id="0" depart="38.00" departLane="a210_0" departPos="5.10" departSpeed="0.00" departDelay="0.46" arrival="397.00" arrivalLane="b17[1]_0" arrivalPos="187.21" arrivalSpeed="13.99" duration="359.00" routeLength="2779.71" waitingTime="123.00" waitingCount="5" stopTime="0.00" timeLoss="166.45" rerouteNo="0" devices="vehroute_0 tripinfo_0 fcd_0" vType="DEFAULT_VEHTYPE" speedFactor="1.06" vaporized=""/>
    <tripinfo id="1" depart="129.00" departLane="a210_0" departPos="5.10" departSpeed="0.00" departDelay="0.94" arrival="403.00" arrivalLane="b17[1]_0" arrivalPos="187.21" arrivalSpeed="11.85" duration="274.00" routeLength="2779.71" waitingTime="16.00" waitingCount="2" stopTime="0.00" timeLoss="56.28" rerouteNo="0" devices="vehroute_1 tripinfo_1 fcd_1" vType="DEFAULT_VEHTYPE" speedFactor="0.94" vaporized=""/>
    <tripinfo id="2" depart="137.00" departLane="a210_0" departPos="5.10" departSpeed="0.00" departDelay="0.12" arrival="405.00" arrivalLane="b17[1]_0" arrivalPos="187.21" arrivalSpeed="13.21" duration="268.00" routeLength="2779.71" waitingTime="15.00" waitingCount="2" stopTime="0.00" timeLoss="65.31" rerouteNo="0" devices="vehroute_2 tripinfo_2 fcd_2" vType="DEFAULT_VEHTYPE" speedFactor="1.01" vaporized=""/>
    <tripinfo id="3" depart="154.00" departLane="a210_0" departPos="5.10" departSpeed="0.00" departDelay="0.52" arrival="406.00" arrivalLane="b17[1]_0" arrivalPos="187.21" arrivalSpeed="14.17" duration="252.00" routeLength="2779.71" waitingTime="11.00" waitingCount="2" stopTime="0.00" timeLoss="63.97" rerouteNo="0" devices="vehroute_3 tripinfo_3 fcd_3" vType="DEFAULT_VEHTYPE" speedFactor="1.08" vaporized=""/>
    <tripinfo id="4" depart="173.00" departLane="a210_0" departPos="5.10" departSpeed="0.00" departDelay="0.81" arrival="408.00" arrivalLane="b17[1]_0" arrivalPos="187.21" arrivalSpeed="13.76" duration="235.00" routeLength="2779.71" waitingTime="3.00" waitingCount="1" stopTime="0.00" timeLoss="36.86" rerouteNo="0" devices="vehroute_4 tripinfo_4 fcd_4" vType="DEFAULT_VEHTYPE" speedFactor="1.03" vaporized=""/>
    <tripinfo id="5" depart="233.00" departLane="a210_0" departPos="5.10" departSpeed="0.00" departDelay="0.38" arrival="542.00" arrivalLane="b17[1]_0" arrivalPos="187.21" arrivalSpeed="10.95" duration="309.00" routeLength="2779.71" waitingTime="32.00" waitingCount="1" stopTime="0.00" timeLoss="63.50" rerouteNo="0" devices="vehroute_5 tripinfo_5 fcd_5" vType="DEFAULT_VEHTYPE" speedFactor="0.83" vaporized=""/>
    <tripinfo id="6" depart="248.00" departLane="a210_0" departPos="5.10" departSpeed="0.00" departDelay="0.63" arrival="543.00" arrivalLane="b17[1]_0" arrivalPos="187.21" arrivalSpeed="13.40" duration="295.00" routeLength="2779.71" waitingTime="30.00" waitingCount="1" stopTime="0.00" timeLoss="100.05" rerouteNo="0" devices="vehroute_6 tripinfo_6 fcd_6" vType="DEFAULT_VEHTYPE" speedFactor="1.05" vaporized=""/>
    <tripinfo id="7" depart="251.00" departLane="a210_0" departPos="5.10" departSpeed="0.00" departDelay="1.68" arrival="545.00" arrivalLane="b17[1]_0" arrivalPos="187.21" arrivalSpeed="11.81" duration="294.00" routeLength="2779.71" waitingTime="23.00" waitingCount="1" stopTime="0.00" timeLoss="64.23" rerouteNo="0" devices="vehroute_7 tripinfo_7 fcd_7" vType="DEFAULT_VEHTYPE" speedFactor="0.89" vaporized=""/>
    <tripinfo id="8" depart="276.00" departLane="a210_0" departPos="5.10" departSpeed="0.00" departDelay="0.90" arrival="547.00" arrivalLane="b17[1]_0" arrivalPos="187.21" arrivalSpeed="12.90" duration="271.00" routeLength="2779.71" waitingTime="10.00" waitingCount="1" stopTime="0.00" timeLoss="54.13" rerouteNo="0" devices="vehroute_8 tripinfo_8 fcd_8" vType="DEFAULT_VEHTYPE" speedFactor="0.94" vaporized=""/>
    <tripinfo id="9" depart="298.00" departLane="a210_0" departPos="5.10" departSpeed="0.00" departDelay="0.58" arrival="657.00" arrivalLane="b17[1]_0" arrivalPos="187.21" arrivalSpeed="10.97" duration="359.00" routeLength="2779.71" waitingTime="82.00" waitingCount="3" stopTime="0.00" timeLoss="121.66" rerouteNo="0" devices="vehroute_9 tripinfo_9 fcd_9" vType="DEFAULT_VEHTYPE" speedFactor="0.86" vaporized=""/>
    <tripinfo id="10" depart="368.00" departLane="a210_0" departPos="5.10" departSpeed="0.00" departDelay="0.26" arrival="659.00" arrivalLane="b17[1]_0" arrivalPos="187.21" arrivalSpeed="14.51" duration="291.00" routeLength="2779.71" waitingTime="52.00" waitingCount="3" stopTime="0.00" timeLoss="103.78" rerouteNo="0" devices="vehroute_10 tripinfo_10 fcd_10" vType="DEFAULT_VEHTYPE" speedFactor="1.09" vaporized=""/>
    <tripinfo id="11" depart="380.00" departLane="a210_0" departPos="5.10" departSpeed="0.00" departDelay="0.68" arrival="768.00" arrivalLane="b17[1]_0" arrivalPos="187.21" arrivalSpeed="14.04" duration="388.00" routeLength="2779.71" waitingTime="143.00" waitingCount="5" stopTime="0.00" timeLoss="189.77" rerouteNo="0" devices="vehroute_11 tripinfo_11 fcd_11" vType="DEFAULT_VEHTYPE" speedFactor="1.03" vaporized=""/>
    <tripinfo id="12" depart="383.00" departLane="a210_0" departPos="5.10" departSpeed="0.00" departDelay="2.50" arrival="770.00" arrivalLane="b17[1]_0" arrivalPos="187.21" arrivalSpeed="13.59" duration="387.00" routeLength="2779.71" waitingTime="140.00" waitingCount="5" stopTime="0.00" timeLoss="191.96" rerouteNo="0" devices="vehroute_12 tripinfo_12 fcd_12" vType="DEFAULT_VEHTYPE" speedFactor="1.05" vaporized=""/>
    <tripinfo id="13" depart="411.00" departLane="a210_0" departPos="5.10" departSpeed="0.00" departDelay="0.76" arrival="771.00" arrivalLane="b17[1]_0" arrivalPos="187.21" arrivalSpeed="14.62" duration="360.00" routeLength="2779.71" waitingTime="116.00" waitingCount="5" stopTime="0.00" timeLoss="178.86" rerouteNo="0" devices="vehroute_13 tripinfo_13 fcd_13" vType="DEFAULT_VEHTYPE" speedFactor="1.12" vaporized=""/>
    <tripinfo id="15" depart="458.00" departLane="a210_0" departPos="5.10" departSpeed="0.00" departDelay="0.08" arrival="781.00" arrivalLane="b17[1]_0" arrivalPos="187.21" arrivalSpeed="12.03" duration="323.00" routeLength="2779.71" waitingTime="63.00" waitingCount="2" stopTime="0.00" timeLoss="103.68" rerouteNo="0" devices="vehroute_15 tripinfo_15 fcd_15" vType="DEFAULT_VEHTYPE" speedFactor="0.93" vaporized=""/>
    <tripinfo id="16" depart="480.00" departLane="a210_0" departPos="5.10" departSpeed="0.00" departDelay="0.68" arrival="786.00" arrivalLane="b17[1]_0" arrivalPos="187.21" arrivalSpeed="10.97" duration="306.00" routeLength="2779.71" waitingTime="35.00" waitingCount="1" stopTime="0.00" timeLoss="74.21" rerouteNo="0" devices="vehroute_16 tripinfo_16 fcd_16" vType="DEFAULT_VEHTYPE" speedFactor="0.88" vaporized=""/>
    <tripinfo id="14" depart="451.00" departLane="a210_0" departPos="5.10" departSpeed="0.00" departDelay="0.16" arrival="842.00" arrivalLane="b1[1]_0" arrivalPos="486.33" arrivalSpeed="12.60" duration="391.00" routeLength="3104.28" waitingTime="109.00" waitingCount="3" stopTime="0.00" timeLoss="161.15" rerouteNo="0" devices="vehroute_14 tripinfo_14 fcd_14" vType="DEFAULT_VEHTYPE" speedFactor="0.99" vaporized=""/>
    <tripinfo id="17" depart="483.00" departLane="a210_0" departPos="5.10" departSpeed="0.00" departDelay="1.31" arrival="846.00" arrivalLane="b1[1]_0" arrivalPos="486.33" arrivalSpeed="12.33" duration="363.00" routeLength="3104.28" waitingTime="61.00" waitingCount="2" stopTime="0.00" timeLoss="121.22" rerouteNo="0" devices="vehroute_17 tripinfo_17 fcd_17" vType="DEFAULT_VEHTYPE" speedFactor="0.94" vaporized=""/>
    <tripinfo id="18" depart="538.00" departLane="a210_0" departPos="5.10" departSpeed="0.00" departDelay="0.74" arrival="896.00" arrivalLane="b17[1]_0" arrivalPos="187.21" arrivalSpeed="12.47" duration="358.00" routeLength="2779.71" waitingTime="100.00" waitingCount="5" stopTime="0.00" timeLoss="140.58" rerouteNo="0" devices="vehroute_18 tripinfo_18 fcd_18" vType="DEFAULT_VEHTYPE" speedFactor="0.94" vaporized=""/>
    <tripinfo id="19" depart="637.00" departLane="a210_0" departPos="5.10" departSpeed="0.00" departDelay="0.21" arrival="898.00" arrivalLane="b17[1]_0" arrivalPos="187.21" arrivalSpeed="15.48" duration="261.00" routeLength="2779.71" waitingTime="29.00" waitingCount="3" stopTime="0.00" timeLoss="84.53" rerouteNo="0" devices="vehroute_19 tripinfo_19 fcd_19" vType="DEFAULT_VEHTYPE" speedFactor="1.16" vaporized=""/>
    <tripinfo id="21" depart="716.00" departLane="a210_0" departPos="5.10" departSpeed="0.00" departDelay="0.12" arrival="1015.00" arrivalLane="b17[1]_0" arrivalPos="187.21" arrivalSpeed="13.77" duration="299.00" routeLength="2779.71" waitingTime="54.00" waitingCount="4" stopTime="0.00" timeLoss="97.14" rerouteNo="0" devices="vehroute_21 tripinfo_21 fcd_21" vType="DEFAULT_VEHTYPE" speedFactor="1.01" vaporized=""/>
    <tripinfo id="20" depart="683.00" departLane="a210_0" departPos="5.10" departSpeed="0.00" departDelay="0.10" arrival="1082.00" arrivalLane="b1[1]_0" arrivalPos="486.33" arrivalSpeed="13.09" duration="399.00" routeLength="3104.28" waitingTime="124.00" waitingCount="6" stopTime="0.00" timeLoss="175.60" rerouteNo="0" devices="vehroute_20 tripinfo_20 fcd_20" vType="DEFAULT_VEHTYPE" speedFactor="1.02" vaporized=""/>
    <tripinfo id="23" depart="821.00" departLane="a210_0" departPos="5.10" departSpeed="0.00" departDelay="0.77" arrival="1145.00" arrivalLane="b17[1]_0" arrivalPos="187.21" arrivalSpeed="12.02" duration="324.00" routeLength="2779.71" waitingTime="58.00" waitingCount="2" stopTime="0.00" timeLoss="94.38" rerouteNo="0" devices="vehroute_23 tripinfo_23 fcd_23" vType="DEFAULT_VEHTYPE" speedFactor="0.89" vaporized=""/>
    <tripinfo id="24" depart="877.00" departLane="a210_0" departPos="5.10" departSpeed="0.00" departDelay="0.48" arrival="1153.00" arrivalLane="b17[1]_0" arrivalPos="187.21" arrivalSpeed="11.31" duration="276.00" routeLength="2779.71" waitingTime="0.00" waitingCount="0" stopTime="0.00" timeLoss="28.84" rerouteNo="0" devices="vehroute_24 tripinfo_24 fcd_24" vType="DEFAULT_VEHTYPE" speedFactor="0.83" vaporized=""/>
    <tripinfo id="25" depart="895.00" departLane="a210_0" departPos="5.10" departSpeed="0.00" departDelay="0.11" arrival="1155.00" arrivalLane="b17[1]_0" arrivalPos="187.21" arrivalSpeed="12.09" duration="260.00" routeLength="2779.71" waitingTime="0.00" waitingCount="0" stopTime="0.00" timeLoss="26.16" rerouteNo="0" devices="vehroute_25 tripinfo_25 fcd_25" vType="DEFAULT_VEHTYPE" speedFactor="0.87" vaporized=""/>
    <tripinfo id="22" depart="818.00" departLane="a210_0" departPos="5.10" departSpeed="0.00" departDelay="0.93" arrival="1179.00" arrivalLane="b1[1]_0" arrivalPos="486.33" arrivalSpeed="12.91" duration="361.00" routeLength="3104.28" waitingTime="83.00" waitingCount="6" stopTime="0.00" timeLoss="128.35" rerouteNo="0" devices="vehroute_22 tripinfo_22 fcd_22" vType="DEFAULT_VEHTYPE" speedFactor="0.97" vaporized=""/>
    <tripinfo id="26" depart="912.00" departLane="a210_0" departPos="5.10" departSpeed="0.00" departDelay="0.99" arrival="1266.00" arrivalLane="b17[1]_0" arrivalPos="187.21" arrivalSpeed="12.55" duration="354.00" routeLength="2779.71" waitingTime="100.00" waitingCount="3" stopTime="0.00" timeLoss="132.01" rerouteNo="0" devices="vehroute_26 tripinfo_26 fcd_26" vType="DEFAULT_VEHTYPE" speedFactor="0.92" vaporized=""/>
    <tripinfo id="28" depart="939.00" departLane="a210_0" departPos="5.10" departSpeed="0.00" departDelay="0.43" arrival="1268.00" arrivalLane="b17[1]_0" arrivalPos="187.21" arrivalSpeed="15.18" duration="329.00" routeLength="2779.71" waitingTime="89.00" waitingCount="4" stopTime="0.00" timeLoss="148.86" rerouteNo="0" devices="vehroute_28 tripinfo_28 fcd_28" vType="DEFAULT_VEHTYPE" speedFactor="1.13" vaporized=""/>
    <tripinfo id="30" depart="961.00" departLane="a210_0" departPos="5.10" departSpeed="0.00" departDelay="3.33" arrival="1269.00" arrivalLane="b17[1]_0" arrivalPos="187.21" arrivalSpeed="15.35" duration="308.00" routeLength="2779.71" waitingTime="48.00" waitingCount="3" stopTime="0.00" timeLoss="134.62" rerouteNo="0" devices="vehroute_30 tripinfo_30 fcd_30" vType="DEFAULT_VEHTYPE" speedFactor="1.18" vaporized=""/>
    <tripinfo id="31" depart="1006.00" departLane="a210_0" departPos="5.10" departSpeed="0.00" departDelay="0.28" arrival="1271.00" arrivalLane="b17[1]_0" arrivalPos="187.21" arrivalSpeed="15.70" duration="265.00" routeLength="2779.71" waitingTime="24.00" waitingCount="2" stopTime="0.00" timeLoss="89.09" rerouteNo="0" devices="vehroute_31 tripinfo_31 fcd_31" vType="DEFAULT_VEHTYPE" speedFactor="1.15" vaporized=""/>
    <tripinfo id="27" depart="920.00" departLane="a210_0" departPos="5.10" departSpeed="0.00" departDelay="0.51" arrival="1309.00" arrivalLane="b1[1]_0" arrivalPos="486.33" arrivalSpeed="12.16" duration="389.00" routeLength="3104.28" waitingTime="107.00" waitingCount="4" stopTime="0.00" timeLoss="149.36" rerouteNo="0" devices="vehroute_27 tripinfo_27 fcd_27" vType="DEFAULT_VEHTYPE" speedFactor="0.95" vaporized=""/>
    <tripinfo id="29" depart="958.00" departLane="a210_0" departPos="5.10" departSpeed="0.00" departDelay="0.94" arrival="1312.00" arrivalLane="b1[1]_0" arrivalPos="486.33" arrivalSpeed="11.94" duration="354.00" routeLength="3104.28" waitingTime="54.00" waitingCount="4" stopTime="0.00" timeLoss="110.45" rerouteNo="0" devices="vehroute_29 tripinfo_29 fcd_29" vType="DEFAULT_VEHTYPE" speedFactor="0.93" vaporized=""/>
    <tripinfo id="32" depart="1160.00" departLane="a210_0" departPos="5.10" departSpeed="0.00" departDelay="0.02" arrival="1392.00" arrivalLane="b17[1]_0" arrivalPos="187.21" arrivalSpeed="13.31" duration="232.00" routeLength="2779.71" waitingTime="3.00" waitingCount="1" stopTime="0.00" timeLoss="29.43" rerouteNo="0" devices="vehroute_32 tripinfo_32 fcd_32" vType="DEFAULT_VEHTYPE" speedFactor="1.01" vaporized=""/>
    <tripinfo id="33" depart="1165.00" departLane="a210_0" departPos="5.10" departSpeed="0.00" departDelay="0.40" arrival="1393.00" arrivalLane="b17[1]_0" arrivalPos="187.21" arrivalSpeed="14.29" duration="228.00" routeLength="2779.71" waitingTime="1.00" waitingCount="1" stopTime="0.00" timeLoss="53.61" rerouteNo="0" devices="vehroute_33 tripinfo_33 fcd_33" vType="DEFAULT_VEHTYPE" speedFactor="1.17" vaporized=""/>
    <tripinfo id="34" depart="1276.00" departLane="a210_0" departPos="5.10" departSpeed="0.00" departDelay="0.75" arrival="1513.00" arrivalLane="b17[1]_0" arrivalPos="187.21" arrivalSpeed="13.41" duration="237.00" routeLength="2779.71" waitingTime="2.00" waitingCount="1" stopTime="0.00" timeLoss="33.45" rerouteNo="0" devices="vehroute_34 tripinfo_34 fcd_34" vType="DEFAULT_VEHTYPE" speedFactor="0.99" vaporized=""/>
    <tripinfo id="35" depart="1279.00" departLane="a210_0" departPos="5.10" departSpeed="0.00" departDelay="1.57" arrival="1555.00" arrivalLane="b1[1]_0" arrivalPos="486.33" arrivalSpeed="13.11" duration="276.00" routeLength="3104.28" waitingTime="11.00" waitingCount="2" stopTime="0.00" timeLoss="53.07" rerouteNo="0" devices="vehroute_35 tripinfo_35 fcd_35" vType="DEFAULT_VEHTYPE" speedFactor="1.02" vaporized=""/>
    <tripinfo id="36" depart="1338.00" departLane="a210_0" departPos="5.10" departSpeed="0.00" departDelay="0.93" arrival="1632.00" arrivalLane="b17[1]_0" arrivalPos="187.21" arrivalSpeed="13.51" duration="294.00" routeLength="2779.71" waitingTime="46.00" waitingCount="2" stopTime="0.00" timeLoss="83.89" rerouteNo="0" devices="vehroute_36 tripinfo_36 fcd_36" vType="DEFAULT_VEHTYPE" speedFactor="0.97" vaporized=""/>
    <tripinfo id="37" depart="1391.00" departLane="a210_0" departPos="5.10" departSpeed="0.00" departDelay="0.14" arrival="1633.00" arrivalLane="b17[1]_0" arrivalPos="187.21" arrivalSpeed="14.24" duration="242.00" routeLength="2779.71" waitingTime="15.00" waitingCount="2" stopTime="0.00" timeLoss="69.47" rerouteNo="0" devices="vehroute_37 tripinfo_37 fcd_37" vType="DEFAULT_VEHTYPE" speedFactor="1.18" vaporized=""/>
    <tripinfo id="38" depart="1394.00" departLane="a210_0" departPos="5.10" departSpeed="0.00" departDelay="0.52" arrival="1635.00" arrivalLane="b17[1]_0" arrivalPos="187.21" arrivalSpeed="14.64" duration="241.00" routeLength="2779.71" waitingTime="12.00" waitingCount="1" stopTime="0.00" timeLoss="56.05" rerouteNo="0" devices="vehroute_38 tripinfo_38 fcd_38" vType="DEFAULT_VEHTYPE" speedFactor="1.10" vaporized=""/>
    <tripinfo id="39" depart="1397.00" departLane="a210_0" departPos="5.10" departSpeed="0.00" departDelay="1.66" arrival="1759.00" arrivalLane="b17[1]_0" arrivalPos="187.21" arrivalSpeed="11.87" duration="362.00" routeLength="2779.71" waitingTime="98.00" waitingCount="4" stopTime="0.00" timeLoss="136.82" rerouteNo="0" devices="vehroute_39 tripinfo_39 fcd_39" vType="DEFAULT_VEHTYPE" speedFactor="0.90" vaporized=""/>
    <tripinfo id="40" depart="1413.00" departLane="a210_0" departPos="5.10" departSpeed="0.00" departDelay="0.38" arrival="1761.00" arrivalLane="b17[1]_0" arrivalPos="187.21" arrivalSpeed="13.11" duration="348.00" routeLength="2779.71" waitingTime="93.00" waitingCount="3" stopTime="0.00" timeLoss="149.68" rerouteNo="0" devices="vehroute_40 tripinfo_40 fcd_40" vType="DEFAULT_VEHTYPE" speedFactor="1.03" vaporized=""/>
    <tripinfo id="42" depart="1484.00" departLane="a210_0" departPos="5.10" departSpeed="0.00" departDelay="0.33" arrival="1763.00" arrivalLane="b17[1]_0" arrivalPos="187.21" arrivalSpeed="14.72" duration="279.00" routeLength="2779.71" waitingTime="40.00" waitingCount="2" stopTime="0.00" timeLoss="91.89" rerouteNo="0" devices="vehroute_42 tripinfo_42 fcd_42" vType="DEFAULT_VEHTYPE" speedFactor="1.09" vaporized=""/>
    <tripinfo id="43" depart="1507.00" departLane="a210_0" departPos="5.10" departSpeed="0.00" departDelay="0.11" arrival="1765.00" arrivalLane="b17[1]_0" arrivalPos="187.21" arrivalSpeed="13.64" duration="258.00" routeLength="2779.71" waitingTime="12.00" waitingCount="2" stopTime="0.00" timeLoss="61.51" rerouteNo="0" devices="vehroute_43 tripinfo_43 fcd_43" vType="DEFAULT_VEHTYPE" speedFactor="1.04" vaporized=""/>
    <tripinfo id="41" depart="1458.00" departLane="a210_0" departPos="5.10" departSpeed="0.00" departDelay="0.73" arrival="1804.00" arrivalLane="b1[1]_0" arrivalPos="486.33" arrivalSpeed="12.89" duration="346.00" routeLength="3104.28" waitingTime="56.00" waitingCount="4" stopTime="0.00" timeLoss="107.55" rerouteNo="0" devices="vehroute_41 tripinfo_41 fcd_41" vType="DEFAULT_VEHTYPE" speedFactor="0.96" vaporized=""/>
    <tripinfo id="44" depart="1528.00" departLane="a210_0" departPos="5.10" departSpeed="0.00" departDelay="0.53" arrival="1874.00" arrivalLane="b17[1]_0" arrivalPos="187.21" arrivalSpeed="13.90" duration="346.00" routeLength="2779.71" waitingTime="110.00" waitingCount="4" stopTime="0.00" timeLoss="151.06" rerouteNo="0" devices="vehroute_44 tripinfo_44 fcd_44" vType="DEFAULT_VEHTYPE" speedFactor="1.04" vaporized=""/>
    <tripinfo id="45" depart="1596.00" departLane="a210_0" departPos="5.10" departSpeed="0.00" departDelay="0.22" arrival="1875.00" arrivalLane="b17[1]_0" arrivalPos="187.21" arrivalSpeed="14.14" duration="279.00" routeLength="2779.71" waitingTime="49.00" waitingCount="4" stopTime="0.00" timeLoss="92.12" rerouteNo="0" devices="vehroute_45 tripinfo_45 fcd_45" vType="DEFAULT_VEHTYPE" speedFactor="1.09" vaporized=""/>
    <tripinfo id="46" depart="1621.00" departLane="a210_0" departPos="5.10" departSpeed="0.00" departDelay="0.55" arrival="1880.00" arrivalLane="b17[1]_0" arrivalPos="187.21" arrivalSpeed="13.60" duration="259.00" routeLength="2779.71" waitingTime="25.00" waitingCount="1" stopTime="0.00" timeLoss="55.06" rerouteNo="0" devices="vehroute_46 tripinfo_46 fcd_46" vType="DEFAULT_VEHTYPE" speedFactor="1.00" vaporized=""/>
    <tripinfo id="47" depart="1624.00" departLane="a210_0" departPos="5.10" departSpeed="0.00" departDelay="1.77" arrival="1890.00" arrivalLane="b17[1]_0" arrivalPos="187.21" arrivalSpeed="11.87" duration="266.00" routeLength="2779.71" waitingTime="14.00" waitingCount="1" stopTime="0.00" timeLoss="40.20" rerouteNo="0" devices="vehroute_47 tripinfo_47 fcd_47" vType="DEFAULT_VEHTYPE" speedFactor="0.90" vaporized=""/>
    <tripinfo id="48" depart="1664.00" departLane="a210_0" departPos="5.10" departSpeed="0.00" departDelay="0.99" arrival="2009.00" arrivalLane="b17[1]_0" arrivalPos="187.21" arrivalSpeed="11.86" duration="345.00" routeLength="2779.71" waitingTime="70.00" waitingCount="4" stopTime="0.00" timeLoss="112.23" rerouteNo="0" devices="vehroute_48 tripinfo_48 fcd_48" vType="DEFAULT_VEHTYPE" speedFactor="0.88" vaporized=""/>
    <tripinfo id="52" depart="1750.00" departLane="a210_0" departPos="5.10" departSpeed="0.00" departDelay="0.34" arrival="2133.00" arrivalLane="b17[1]_0" arrivalPos="187.21" arrivalSpeed="12.98" duration="383.00" routeLength="2779.71" waitingTime="117.00" waitingCount="3" stopTime="0.00" timeLoss="182.56" rerouteNo="0" devices="vehroute_52 tripinfo_52 fcd_52" vType="DEFAULT_VEHTYPE" speedFactor="1.02" vaporized=""/>
    <tripinfo id="53" depart="1784.00" departLane="a210_0" departPos="5.10" departSpeed="0.00" departDelay="0.37" arrival="2135.00" arrivalLane="b17[1]_0" arrivalPos="187.21" arrivalSpeed="14.54" duration="351.00" routeLength="2779.71" waitingTime="93.00" waitingCount="3" stopTime="0.00" timeLoss="164.28" rerouteNo="0" devices="vehroute_53 tripinfo_53 fcd_53" vType="DEFAULT_VEHTYPE" speedFactor="1.10" vaporized=""/>
    <tripinfo id="54" depart="1798.00" departLane="a210_0" departPos="5.10" departSpeed="0.00" departDelay="0.40" arrival="2138.00" arrivalLane="b17[1]_0" arrivalPos="187.21" arrivalSpeed="13.31" duration="340.00" routeLength="2779.71" waitingTime="81.00" waitingCount="1" stopTime="0.00" timeLoss="136.81" rerouteNo="0" devices="vehroute_54 tripinfo_54 fcd_54" vType="DEFAULT_VEHTYPE" speedFactor="1.00" vaporized=""/>
    <tripinfo id="51" depart="1734.00" departLane="a210_0" departPos="5.10" departSpeed="0.00" departDelay="0.11" arrival="2198.00" arrivalLane="b1[1]_2" arrivalPos="486.33" arrivalSpeed="15.16" duration="464.00" routeLength="3104.28" waitingTime="155.00" waitingCount="5" stopTime="0.00" timeLoss="269.34" rerouteNo="0" devices="vehroute_51 tripinfo_51 fcd_51" vType="DEFAULT_VEHTYPE" speedFactor="1.17" vaporized=""/>
    <tripinfo id="49" depart="1708.00" departLane="a210_0" departPos="5.10" departSpeed="0.00" departDelay="0.39" arrival="2202.00" arrivalLane="b1[1]_0" arrivalPos="486.33" arrivalSpeed="11.69" duration="494.00" routeLength="3104.28" waitingTime="177.00" waitingCount="6" stopTime="0.00" timeLoss="227.31" rerouteNo="0" devices="vehroute_49 tripinfo_49 fcd_49" vType="DEFAULT_VEHTYPE" speedFactor="0.85" vaporized=""/>
    <tripinfo id="55" depart="1831.00" departLane="a210_0" departPos="5.10" departSpeed="0.00" departDelay="0.11" arrival="2203.00" arrivalLane="b1[1]_2" arrivalPos="486.33" arrivalSpeed="13.44" duration="372.00" routeLength="3104.28" waitingTime="82.00" waitingCount="2" stopTime="0.00" timeLoss="144.05" rerouteNo="0" devices="vehroute_55 tripinfo_55 fcd_55" vType="DEFAULT_VEHTYPE" speedFactor="1.00" vaporized=""/>
    <tripinfo id="50" depart="1722.00" departLane="a210_0" departPos="5.10" departSpeed="0.00" departDelay="0.28" arrival="2205.00" arrivalLane="b1[1]_0" arrivalPos="486.33" arrivalSpeed="11.13" duration="483.00" routeLength="3104.28" waitingTime="161.00" waitingCount="5" stopTime="0.00" timeLoss="216.02" rerouteNo="0" devices="vehroute_50 tripinfo_50 fcd_50" vType="DEFAULT_VEHTYPE" speedFactor="0.85" vaporized=""/>
    <tripinfo id="56" depart="1853.00" departLane="a210_0" departPos="5.10" departSpeed="0.00" departDelay="0.23" arrival="2252.00" arrivalLane="b17[1]_0" arrivalPos="187.21" arrivalSpeed="11.82" duration="399.00" routeLength="2779.71" waitingTime="131.00" waitingCount="6" stopTime="0.00" timeLoss="172.93" rerouteNo="0" devices="vehroute_56 tripinfo_56 fcd_56" vType="DEFAULT_VEHTYPE" speedFactor="0.90" vaporized=""/>
    <tripinfo id="57" depart="1892.00" departLane="a210_0" departPos="5.10" departSpeed="0.00" departDelay="0.18" arrival="2253.00" arrivalLane="b17[1]_0" arrivalPos="187.21" arrivalSpeed="12.76" duration="361.00" routeLength="2779.71" waitingTime="115.00" waitingCount="5" stopTime="0.00" timeLoss="182.91" rerouteNo="0" devices="vehroute_57 tripinfo_57 fcd_57" vType="DEFAULT_VEHTYPE" speedFactor="1.14" vaporized=""/>
    <tripinfo id="58" depart="1979.00" departLane="a210_0" departPos="5.10" departSpeed="0.00" departDelay="0.38" arrival="2255.00" arrivalLane="b17[1]_0" arrivalPos="187.21" arrivalSpeed="13.19" duration="276.00" routeLength="2779.71" waitingTime="27.00" waitingCount="3" stopTime="0.00" timeLoss="77.32" rerouteNo="0" devices="vehroute_58 tripinfo_58 fcd_58" vType="DEFAULT_VEHTYPE" speedFactor="1.02" vaporized=""/>
    <tripinfo id="59" depart="2096.00" departLane="a210_0" departPos="5.10" departSpeed="0.00" departDelay="0.27" arrival="2369.00" arrivalLane="b17[1]_0" arrivalPos="187.21" arrivalSpeed="13.20" duration="273.00" routeLength="2779.71" waitingTime="27.00" waitingCount="4" stopTime="0.00" timeLoss="63.08" rerouteNo="0" devices="vehroute_59 tripinfo_59 fcd_59" vType="DEFAULT_VEHTYPE" speedFactor="0.97" vaporized=""/>
    <tripinfo id="60" depart="2211.00" departLane="a210_0" departPos="5.10" departSpeed="0.00" departDelay="0.31" arrival="2510.00" arrivalLane="b1[1]_1" arrivalPos="486.33" arrivalSpeed="14.54" duration="299.00" routeLength="3104.28" waitingTime="44.00" waitingCount="4" stopTime="0.00" timeLoss="89.05" rerouteNo="0" devices="vehroute_60 tripinfo_60 fcd_60" vType="DEFAULT_VEHTYPE" speedFactor="1.08" vaporized=""/>
    <tripinfo id="61" depart="2229.00" departLane="a210_0" departPos="5.10" departSpeed="0.00" departDelay="0.79" arrival="2512.00" arrivalLane="b1[1]_2" arrivalPos="486.33" arrivalSpeed="15.33" duration="283.00" routeLength="3104.28" waitingTime="36.00" waitingCount="3" stopTime="0.00" timeLoss="80.01" rerouteNo="0" devices="vehroute_61 tripinfo_61 fcd_61" vType="DEFAULT_VEHTYPE" speedFactor="1.12" vaporized=""/>
    <tripinfo id="62" depart="2266.00" departLane="a210_0" departPos="5.10" departSpeed="0.00" departDelay="0.52" arrival="2612.00" arrivalLane="b17[1]_0" arrivalPos="187.21" arrivalSpeed="13.56" duration="346.00" routeLength="2779.71" waitingTime="110.00" waitingCount="4" stopTime="0.00" timeLoss="145.92" rerouteNo="0" devices="vehroute_62 tripinfo_62 fcd_62" vType="DEFAULT_VEHTYPE" speedFactor="1.02" vaporized=""/>
    <tripinfo id="64" depart="2347.00" departLane="a210_0" departPos="5.10" departSpeed="0.00" departDelay="0.84" arrival="2620.00" arrivalLane="b17[1]_0" arrivalPos="187.21" arrivalSpeed="13.01" duration="273.00" routeLength="2779.71" waitingTime="25.00" waitingCount="1" stopTime="0.00" timeLoss="56.43" rerouteNo="0" devices="vehroute_64 tripinfo_64 fcd_64" vType="DEFAULT_VEHTYPE" speedFactor="0.94" vaporized=""/>
    <tripinfo id="63" depart="2326.00" departLane="a210_0" departPos="5.10" departSpeed="0.00" departDelay="0.08" arrival="2651.00" arrivalLane="b1[1]_0" arrivalPos="486.33" arrivalSpeed="13.36" duration="325.00" routeLength="3104.28" waitingTime="50.00" waitingCount="3" stopTime="0.00" timeLoss="95.16" rerouteNo="0" devices="vehroute_63 tripinfo_63 fcd_63" vType="DEFAULT_VEHTYPE" speedFactor="0.99" vaporized=""/>
    <tripinfo id="65" depart="2355.00" departLane="a210_0" departPos="5.10" departSpeed="0.00" departDelay="0.33" arrival="2660.00" arrivalLane="b1[1]_0" arrivalPos="486.33" arrivalSpeed="11.41" duration="305.00" routeLength="3104.28" waitingTime="13.00" waitingCount="1" stopTime="0.00" timeLoss="47.00" rerouteNo="0" devices="vehroute_65 tripinfo_65 fcd_65" vType="DEFAULT_VEHTYPE" speedFactor="0.88" vaporized=""/>
    <tripinfo id="66" depart="2372.00" departLane="a210_0" departPos="5.10" departSpeed="0.00" departDelay="0.71" arrival="2743.00" arrivalLane="b17[1]_0" arrivalPos="187.21" arrivalSpeed="11.85" duration="371.00" routeLength="2779.71" waitingTime="106.00" waitingCount="4" stopTime="0.00" timeLoss="146.45" rerouteNo="0" devices="vehroute_66 tripinfo_66 fcd_66" vType="DEFAULT_VEHTYPE" speedFactor="0.91" vaporized=""/>