<?xml version="1.0" encoding="UTF-8"?>

<!-- generated on 2025-03-21 18:08:48 by Eclipse SUMO sumo Version 1.21.0
<sumoConfiguration xmlns:xsi="http://www.w3.org/2001/XMLSchema-instance" xsi:noNamespaceSchemaLocation="http://sumo.dlr.de/xsd/sumoConfiguration.xsd">

    <input>
        <net-file value="${STATICPATH}/joined_lanes.net.xml"/>
        <route-files value="${SIMULATIONPATH}/generatedRoutes.rou.xml"/>
        <additional-files value="${STATICPATH}/detectors.add.xml,${STATICPATH}/joined_vtypes.add.xml,${STATICPATH}/joined_tls.add.xml"/>
    </input>

    <output>
        <fcd-output value="${SIMULATIONPATH}/fcd.xml"/>
        <queue-output value="${SIMULATIONPATH}/queue.xml"/>
        <summary-output value="${SIMULATIONPATH}/summary.xml"/>
        <tripinfo-output value="${SIMULATIONPATH}/tripinfos.xml"/>
        <vehroute-output value="${SIMULATIONPATH}/vehroute.xml"/>
        <save-state.prefix value="configs\state"/>
    </output>

    <processing>
        <ignore-junction-blocker value="1"/>
        <ignore-route-errors value="true"/>
        <time-to-teleport value="-1"/>
    </processing>

    <report>
        <log value="C:/Users/fabio/Desktop/sumo_log.txt"/>
        <no-step-log value="true"/>
    </report>

    <emissions>
        <phemlight-path value="configs\./PHEMlight/"/>
    </emissions>

    <traci_server>
        <remote-port value="60311"/>
    </traci_server>

</sumoConfiguration>
-->

<tripinfos xmlns:xsi="http://www.w3.org/2001/XMLSchema-instance" xsi:noNamespaceSchemaLocation="http://sumo.dlr.de/xsd/tripinfo_file.xsd">
    <tripinfo id="0" depart="40.00" departLane="a210_0" departPos="5.10" departSpeed="0.00" departDelay="0.29" arrival="395.00" arrivalLane="b17[1]_0" arrivalPos="187.21" arrivalSpeed="13.48" duration="355.00" routeLength="2779.71" waitingTime="121.00" waitingCount="5" stopTime="0.00" timeLoss="163.28" rerouteNo="0" devices="vehroute_0 tripinfo_0 fcd_0" vType="DEFAULT_VEHTYPE" speedFactor="1.06" vaporized=""/>
    <tripinfo id="2" depart="93.00" departLane="a210_0" departPos="5.10" departSpeed="0.00" departDelay="0.08" arrival="400.00" arrivalLane="b17[1]_0" arrivalPos="187.21" arrivalSpeed="13.98" duration="307.00" routeLength="2779.71" waitingTime="67.00" waitingCount="3" stopTime="0.00" timeLoss="104.63" rerouteNo="0" devices="vehroute_2 tripinfo_2 fcd_2" vType="DEFAULT_VEHTYPE" speedFactor="1.01" vaporized=""/>
    <tripinfo id="3" depart="131.00" departLane="a210_0" departPos="5.10" departSpeed="0.00" departDelay="0.82" arrival="401.00" arrivalLane="b17[1]_0" arrivalPos="187.21" arrivalSpeed="14.67" duration="270.00" routeLength="2779.71" waitingTime="34.00" waitingCount="3" stopTime="0.00" timeLoss="82.13" rerouteNo="0" devices="vehroute_3 tripinfo_3 fcd_3" vType="DEFAULT_VEHTYPE" speedFactor="1.08" vaporized=""/>
    <tripinfo id="1" depart="70.00" departLane="a74_0" departPos="5.10" departSpeed="0.00" departDelay="0.91" arrival="493.00" arrivalLane="b2[1][1][1]b_0" arrivalPos="325.74" arrivalSpeed="12.47" duration="423.00" routeLength="3356.41" waitingTime="122.00" waitingCount="4" stopTime="0.00" timeLoss="163.05" rerouteNo="0" devices="vehroute_1 tripinfo_1 fcd_1" vType="DEFAULT_VEHTYPE" speedFactor="0.94" vaporized=""/>
    <tripinfo id="4" depart="209.00" departLane="a210_0" departPos="5.10" departSpeed="0.00" departDelay="0.99" arrival="522.00" arrivalLane="b17[1]_0" arrivalPos="187.21" arrivalSpeed="13.34" duration="313.00" routeLength="2779.71" waitingTime="66.00" waitingCount="6" stopTime="0.00" timeLoss="115.37" rerouteNo="0" devices="vehroute_4 tripinfo_4 fcd_4" vType="DEFAULT_VEHTYPE" speedFactor="1.03" vaporized=""/>
    <tripinfo id="5" depart="212.00" departLane="a210_0" departPos="5.10" departSpeed="0.00" departDelay="2.61" arrival="536.00" arrivalLane="b17[1]_0" arrivalPos="187.21" arrivalSpeed="11.22" duration="324.00" routeLength="2779.71" waitingTime="35.00" waitingCount="3" stopTime="0.00" timeLoss="78.22" rerouteNo="0" devices="vehroute_5 tripinfo_5 fcd_5" vType="DEFAULT_VEHTYPE" speedFactor="0.83" vaporized=""/>
    <tripinfo id="6" depart="221.00" departLane="a74_0" departPos="5.10" departSpeed="0.00" departDelay="0.14" arrival="621.00" arrivalLane="b2[1][1][1]b_0" arrivalPos="325.74" arrivalSpeed="13.76" duration="400.00" routeLength="3353.45" waitingTime="117.00" waitingCount="5" stopTime="0.00" timeLoss="166.10" rerouteNo="0" devices="vehroute_6 tripinfo_6 fcd_6" vType="DEFAULT_VEHTYPE" speedFactor="1.05" vaporized=""/>
    <tripinfo id="8" depart="246.00" departLane="a74_0" departPos="5.10" departSpeed="0.00" departDelay="0.58" arrival="623.00" arrivalLane="b2[1][1][1]b_0" arrivalPos="325.74" arrivalSpeed="11.89" duration="377.00" routeLength="3351.92" waitingTime="72.00" waitingCount="3" stopTime="0.00" timeLoss="117.32" rerouteNo="0" devices="vehroute_8 tripinfo_8 fcd_8" vType="DEFAULT_VEHTYPE" speedFactor="0.94" vaporized=""/>
    <tripinfo id="7" depart="225.00" departLane="a74_0" departPos="5.10" departSpeed="0.00" departDelay="0.75" arrival="628.00" arrivalLane="b2[1][1][1]b_0" arrivalPos="325.74" arrivalSpeed="11.31" duration="403.00" routeLength="3351.92" waitingTime="77.00" waitingCount="2" stopTime="0.00" timeLoss="126.52" rerouteNo="0" devices="vehroute_7 tripinfo_7 fcd_7" vType="DEFAULT_VEHTYPE" speedFactor="0.89" vaporized=""/>
    <tripinfo id="12" depart="381.00" departLane="a210_0" departPos="5.10" departSpeed="0.00" departDelay="0.61" arrival="643.00" arrivalLane="b17[1]_0" arrivalPos="187.21" arrivalSpeed="14.31" duration="262.00" routeLength="2779.71" waitingTime="28.00" waitingCount="4" stopTime="0.00" timeLoss="67.77" rerouteNo="0" devices="vehroute_12 tripinfo_12 fcd_12" vType="DEFAULT_VEHTYPE" speedFactor="1.05" vaporized=""/>
    <tripinfo id="10" depart="316.00" departLane="a74_0" departPos="5.10" departSpeed="0.00" departDelay="0.49" arrival="745.00" arrivalLane="b2[1][1][1]b_0" arrivalPos="325.74" arrivalSpeed="14.73" duration="429.00" routeLength="3353.45" waitingTime="148.00" waitingCount="6" stopTime="0.00" timeLoss="204.80" rerouteNo="0" devices="vehroute_10 tripinfo_10 fcd_10" vType="DEFAULT_VEHTYPE" speedFactor="1.09" vaporized=""/>
    <tripinfo id="11" depart="364.00" departLane="a74_0" departPos="5.10" departSpeed="0.00" departDelay="0.24" arrival="747.00" arrivalLane="b2[1][1][1]b_1" arrivalPos="325.74" arrivalSpeed="13.88" duration="383.00" routeLength="3348.96" waitingTime="91.00" waitingCount="3" stopTime="0.00" timeLoss="144.55" rerouteNo="0" devices="vehroute_11 tripinfo_11 fcd_11" vType="DEFAULT_VEHTYPE" speedFactor="1.03" vaporized=""/>
    <tripinfo id="9" depart="292.00" departLane="a74_0" departPos="5.10" departSpeed="0.00" departDelay="0.69" arrival="754.00" arrivalLane="b2[1][1][1]b_0" arrivalPos="325.74" arrivalSpeed="11.81" duration="462.00" routeLength="3348.96" waitingTime="122.00" waitingCount="4" stopTime="0.00" timeLoss="177.54" rerouteNo="0" devices="vehroute_9 tripinfo_9 fcd_9" vType="DEFAULT_VEHTYPE" speedFactor="0.86" vaporized=""/>
    <tripinfo id="14" depart="437.00" departLane="a210_0" departPos="5.10" departSpeed="0.00" departDelay="0.01" arrival="770.00" arrivalLane="b17[1]_0" arrivalPos="187.21" arrivalSpeed="13.55" duration="333.00" routeLength="2779.71" waitingTime="91.00" waitingCount="4" stopTime="0.00" timeLoss="127.29" rerouteNo="0" devices="vehroute_14 tripinfo_14 fcd_14" vType="DEFAULT_VEHTYPE" speedFactor="0.99" vaporized=""/>
    <tripinfo id="15" depart="471.00" departLane="a210_0" departPos="5.10" departSpeed="0.00" departDelay="0.44" arrival="775.00" arrivalLane="b17[1]_0" arrivalPos="187.21" arrivalSpeed="11.92" duration="304.00" routeLength="2779.71" waitingTime="40.00" waitingCount="3" stopTime="0.00" timeLoss="83.49" rerouteNo="0" devices="vehroute_15 tripinfo_15 fcd_15" vType="DEFAULT_VEHTYPE" speedFactor="0.93" vaporized=""/>
    <tripinfo id="16" depart="478.00" departLane="a210_0" departPos="5.10" departSpeed="0.00" departDelay="0.91" arrival="779.00" arrivalLane="b17[1]_0" arrivalPos="187.21" arrivalSpeed="11.24" duration="301.00" routeLength="2779.71" waitingTime="29.00" waitingCount="2" stopTime="0.00" timeLoss="69.00" rerouteNo="0" devices="vehroute_16 tripinfo_16 fcd_16" vType="DEFAULT_VEHTYPE" speedFactor="0.88" vaporized=""/>
    <tripinfo id="18" depart="494.00" departLane="a210_0" departPos="5.10" departSpeed="0.00" departDelay="0.41" arrival="781.00" arrivalLane="b17[1]_0" arrivalPos="187.21" arrivalSpeed="12.90" duration="287.00" routeLength="2779.71" waitingTime="17.00" waitingCount="2" stopTime="0.00" timeLoss="69.52" rerouteNo="0" devices="vehroute_18 tripinfo_18 fcd_18" vType="DEFAULT_VEHTYPE" speedFactor="0.94" vaporized=""/>
    <tripinfo id="13" depart="419.00" departLane="a74_0" departPos="5.10" departSpeed="0.00" departDelay="0.08" arrival="869.00" arrivalLane="b2[1][1][1]b_1" arrivalPos="325.74" arrivalSpeed="14.73" duration="450.00" routeLength="3353.45" waitingTime="178.00" waitingCount="6" stopTime="0.00" timeLoss="232.87" rerouteNo="0" devices="vehroute_13 tripinfo_13 fcd_13" vType="DEFAULT_VEHTYPE" speedFactor="1.12" vaporized=""/>
    <tripinfo id="19" depart="513.00" departLane="a74_0" departPos="5.10" departSpeed="0.00" departDelay="0.90" arrival="869.00" arrivalLane="b2[1][1][1]b_0" arrivalPos="325.74" arrivalSpeed="15.53" duration="356.00" routeLength="3348.96" waitingTime="98.00" waitingCount="4" stopTime="0.00" timeLoss="144.76" rerouteNo="0" devices="vehroute_19 tripinfo_19 fcd_19" vType="DEFAULT_VEHTYPE" speedFactor="1.16" vaporized=""/>
    <tripinfo id="17" depart="487.00" departLane="a74_0" departPos="5.10" departSpeed="0.00" departDelay="0.40" arrival="874.00" arrivalLane="b2[1][1][1]b_1" arrivalPos="325.74" arrivalSpeed="12.35" duration="387.00" routeLength="3351.92" waitingTime="82.00" waitingCount="4" stopTime="0.00" timeLoss="127.75" rerouteNo="0" devices="vehroute_17 tripinfo_17 fcd_17" vType="DEFAULT_VEHTYPE" speedFactor="0.94" vaporized=""/>
    <tripinfo id="20" depart="527.00" departLane="a74_0" departPos="5.10" departSpeed="0.00" departDelay="0.05" arrival="874.00" arrivalLane="b2[1][1][1]b_0" arrivalPos="325.74" arrivalSpeed="13.79" duration="347.00" routeLength="3351.92" waitingTime="53.00" waitingCount="4" stopTime="0.00" timeLoss="106.33" rerouteNo="0" devices="vehroute_20 tripinfo_20 fcd_20" vType="DEFAULT_VEHTYPE" speedFactor="1.02" vaporized=""/>
    <tripinfo id="22" depart="625.00" departLane="a74_0" departPos="5.10" departSpeed="0.00" departDelay="0.31" arrival="1017.00" arrivalLane="b2[1][1][1]b_0" arrivalPos="325.74" arrivalSpeed="13.03" duration="392.00" routeLength="3348.96" waitingTime="103.00" waitingCount="4" stopTime="0.00" timeLoss="142.36" rerouteNo="0" devices="vehroute_22 tripinfo_22 fcd_22" vType="DEFAULT_VEHTYPE" speedFactor="0.97" vaporized=""/>
    <tripinfo id="21" depart="548.00" departLane="a74_0" departPos="5.10" departSpeed="0.00" departDelay="0.71" arrival="1103.00" arrivalLane="b2[1][1][1]b_0" arrivalPos="325.74" arrivalSpeed="13.53" duration="555.00" routeLength="3356.41" waitingTime="260.00" waitingCount="6" stopTime="0.00" timeLoss="312.89" rerouteNo="0" devices="vehroute_21 tripinfo_21 fcd_21" vType="DEFAULT_VEHTYPE" speedFactor="1.01" vaporized=""/>
    <tripinfo id="23" depart="630.00" departLane="a74_0" departPos="5.10" departSpeed="0.00" departDelay="0.58" arrival="1145.00" arrivalLane="b2[1][1][1]b_0" arrivalPos="325.74" arrivalSpeed="12.05" duration="515.00" routeLength="3348.96" waitingTime="189.00" waitingCount="5" stopTime="0.00" timeLoss="240.36" rerouteNo="0" devices="vehroute_23 tripinfo_23 fcd_23" vType="DEFAULT_VEHTYPE" speedFactor="0.89" vaporized=""/>
    <tripinfo id="28" depart="936.00" departLane="a210_0" departPos="5.10" departSpeed="0.00" departDelay="0.67" arrival="1247.00" arrivalLane="b17[1]_0" arrivalPos="187.21" arrivalSpeed="14.64" duration="311.00" routeLength="2779.71" waitingTime="95.00" waitingCount="3" stopTime="0.00" timeLoss="131.66" rerouteNo="0" devices="vehroute_28 tripinfo_28 fcd_28" vType="DEFAULT_VEHTYPE" speedFactor="1.13" vaporized=""/>
    <tripinfo id="27" depart="862.00" departLane="a74_0" departPos="5.10" departSpeed="0.00" departDelay="0.95" arrival="1268.00" arrivalLane="b2[1][1][1]b_1" arrivalPos="325.74" arrivalSpeed="12.64" duration="406.00" routeLength="3356.41" waitingTime="110.00" waitingCount="3" stopTime="0.00" timeLoss="148.60" rerouteNo="0" devices="vehroute_27 tripinfo_27 fcd_27" vType="DEFAULT_VEHTYPE" speedFactor="0.95" vaporized=""/>
    <tripinfo id="26" depart="778.00" departLane="a74_0" departPos="5.10" departSpeed="0.00" departDelay="0.26" arrival="1269.00" arrivalLane="b2[1][1][1]b_0" arrivalPos="325.74" arrivalSpeed="12.16" duration="491.00" routeLength="3348.96" waitingTime="168.00" waitingCount="4" stopTime="0.00" timeLoss="224.49" rerouteNo="0" devices="vehroute_26 tripinfo_26 fcd_26" vType="DEFAULT_VEHTYPE" speedFactor="0.92" vaporized=""/>
    <tripinfo id="24" depart="701.00" departLane="a74_0" departPos="5.10" departSpeed="0.00" departDelay="0.36" arrival="1272.00" arrivalLane="b2[1][1][1]b_1" arrivalPos="325.74" arrivalSpeed="10.89" duration="571.00" routeLength="3356.41" waitingTime="221.00" waitingCount="6" stopTime="0.00" timeLoss="274.01" rerouteNo="0" devices="vehroute_24 tripinfo_24 fcd_24" vType="DEFAULT_VEHTYPE" speedFactor="0.83" vaporized=""/>
    <tripinfo id="25" depart="751.00" departLane="a74_0" departPos="5.10" departSpeed="0.00" departDelay="0.36" arrival="1272.00" arrivalLane="b2[1][1][1]b_0" arrivalPos="325.74" arrivalSpeed="12.00" duration="521.00" routeLength="3348.96" waitingTime="197.00" waitingCount="4" stopTime="0.00" timeLoss="241.43" rerouteNo="0" devices="vehroute_25 tripinfo_25 fcd_25" vType="DEFAULT_VEHTYPE" speedFactor="0.87" vaporized=""/>
    <tripinfo id="29" depart="948.00" departLane="a74_0" departPos="5.10" departSpeed="0.00" departDelay="0.79" arrival="1354.00" arrivalLane="b2[1][1][1]b_0" arrivalPos="325.74" arrivalSpeed="11.94" duration="406.00" routeLength="3356.41" waitingTime="109.00" waitingCount="3" stopTime="0.00" timeLoss="143.94" rerouteNo="0" devices="vehroute_29 tripinfo_29 fcd_29" vType="DEFAULT_VEHTYPE" speedFactor="0.93" vaporized=""/>
    <tripinfo id="33" depart="1100.00" departLane="a210_0" departPos="5.10" departSpeed="0.00" departDelay="0.11" arrival="1367.00" arrivalLane="b17[1]_0" arrivalPos="187.21" arrivalSpeed="16.19" duration="267.00" routeLength="2779.71" waitingTime="61.00" waitingCount="3" stopTime="0.00" timeLoss="93.04" rerouteNo="0" devices="vehroute_33 tripinfo_33 fcd_33" vType="DEFAULT_VEHTYPE" speedFactor="1.17" vaporized=""/>
    <tripinfo id="30" depart="1092.00" departLane="a74_0" departPos="5.10" departSpeed="0.00" departDelay="0.74" arrival="1462.00" arrivalLane="b2[1][1][1]b_0" arrivalPos="325.74" arrivalSpeed="15.47" duration="370.00" routeLength="3353.45" waitingTime="110.00" waitingCount="4" stopTime="0.00" timeLoss="162.23" rerouteNo="0" devices="vehroute_30 tripinfo_30 fcd_30" vType="DEFAULT_VEHTYPE" speedFactor="1.18" vaporized=""/>
    <tripinfo id="31" depart="1095.00" departLane="a74_0" departPos="5.10" departSpeed="0.00" departDelay="3.21" arrival="1464.00" arrivalLane="b2[1][1][1]b_0" arrivalPos="325.74" arrivalSpeed="15.72" duration="369.00" routeLength="3348.96" waitingTime="111.00" waitingCount="4" stopTime="0.00" timeLoss="157.06" rerouteNo="0" devices="vehroute_31 tripinfo_31 fcd_31" vType="DEFAULT_VEHTYPE" speedFactor="1.15" vaporized=""/>
    <tripinfo id="35" depart="1123.00" departLane="a74_0" departPos="5.10" departSpeed="0.00" departDelay="0.46" arrival="1473.00" arrivalLane="b2[1][1][1]b_0" arrivalPos="325.74" arrivalSpeed="13.76" duration="350.00" routeLength="3351.92" waitingTime="78.00" waitingCount="2" stopTime="0.00" timeLoss="110.76" rerouteNo="0" devices="vehroute_35 tripinfo_35 fcd_35" vType="DEFAULT_VEHTYPE" speedFactor="1.02" vaporized=""/>
    <tripinfo id="32" depart="1098.00" departLane="a74_0" departPos="5.10" departSpeed="0.00" departDelay="1.16" arrival="1474.00" arrivalLane="b2[1][1][1]b_0" arrivalPos="325.74" arrivalSpeed="13.15" duration="376.00" routeLength="3348.96" waitingTime="90.00" waitingCount="3" stopTime="0.00" timeLoss="133.14" rerouteNo="0" devices="vehroute_32 tripinfo_32 fcd_32" vType="DEFAULT_VEHTYPE" speedFactor="1.01" vaporized=""/>
    <tripinfo id="34" depart="1103.00" departLane="a74_0" departPos="5.10" departSpeed="0.00" departDelay="0.49" arrival="1477.00" arrivalLane="b2[1][1][1]b_0" arrivalPos="325.74" arrivalSpeed="13.05" duration="374.00" routeLength="3348.96" waitingTime="83.00" waitingCount="2" stopTime="0.00" timeLoss="128.76" rerouteNo="0" devices="vehroute_34 tripinfo_34 fcd_34" vType="DEFAULT_VEHTYPE" speedFactor="0.99" vaporized=""/>
    <tripinfo id="36" depart="1246.00" departLane="a210_0" departPos="5.10" departSpeed="0.00" departDelay="0.04" arrival="1509.00" arrivalLane="b17[1]_0" arrivalPos="187.21" arrivalSpeed="13.00" duration="263.00" routeLength="2779.71" waitingTime="18.00" waitingCount="2" stopTime="0.00" timeLoss="53.18" rerouteNo="0" devices="vehroute_36 tripinfo_36 fcd_36" vType="DEFAULT_VEHTYPE" speedFactor="0.97" vaporized=""/>
    <tripinfo id="37" depart="1297.00" departLane="a74_0" departPos="5.10" departSpeed="0.00" departDelay="0.51" arrival="1583.00" arrivalLane="b2[1][1][1]b_0" arrivalPos="325.74" arrivalSpeed="15.89" duration="286.00" routeLength="3351.92" waitingTime="43.00" waitingCount="2" stopTime="0.00" timeLoss="78.42" rerouteNo="0" devices="vehroute_37 tripinfo_37 fcd_37" vType="DEFAULT_VEHTYPE" speedFactor="1.18" vaporized=""/>
    <tripinfo id="39" depart="1324.00" departLane="a74_0" departPos="5.10" departSpeed="0.00" departDelay="0.07" arrival="1619.00" arrivalLane="b2[1][1][1]b_0" arrivalPos="325.74" arrivalSpeed="11.35" duration="295.00" routeLength="3351.92" waitingTime="0.00" waitingCount="0" stopTime="0.00" timeLoss="23.59" rerouteNo="0" devices="vehroute_39 tripinfo_39 fcd_39" vType="DEFAULT_VEHTYPE" speedFactor="0.90" vaporized=""/>
    <tripinfo id="38" depart="1324.00" departLane="a210_0" departPos="5.10" departSpeed="0.00" departDelay="0.88" arrival="1625.00" arrivalLane="b17[1]_0" arrivalPos="187.21" arrivalSpeed="15.30" duration="301.00" routeLength="2779.71" waitingTime="71.00" waitingCount="6" stopTime="0.00" timeLoss="115.69" rerouteNo="0" devices="vehroute_38 tripinfo_38 fcd_38" vType="DEFAULT_VEHTYPE" speedFactor="1.10" vaporized=""/>
    <tripinfo id="40" depart="1371.00" departLane="a74_0" departPos="5.10" departSpeed="0.00" departDelay="0.76" arrival="1720.00" arrivalLane="b2[1][1][1]b_0" arrivalPos="325.74" arrivalSpeed="13.26" duration="349.00" routeLength="3353.45" waitingTime="68.00" waitingCount="4" stopTime="0.00" timeLoss="112.65" rerouteNo="0" devices="vehroute_40 tripinfo_40 fcd_40" vType="DEFAULT_VEHTYPE" speedFactor="1.03" vaporized=""/>
    <tripinfo id="44" depart="1491.00" departLane="a210_0" departPos="5.10" departSpeed="0.00" departDelay="0.13" arrival="1751.00" arrivalLane="b17[1]_0" arrivalPos="187.21" arrivalSpeed="14.25" duration="260.00" routeLength="2779.71" waitingTime="28.00" waitingCount="3" stopTime="0.00" timeLoss="64.89" rerouteNo="0" devices="vehroute_44 tripinfo_44 fcd_44" vType="DEFAULT_VEHTYPE" speedFactor="1.04" vaporized=""/>
    <tripinfo id="42" depart="1436.00" departLane="a74_0" departPos="5.10" departSpeed="0.00" departDelay="0.81" arrival="1849.00" arrivalLane="b2[1][1][1]b_0" arrivalPos="325.74" arrivalSpeed="15.06" duration="413.00" routeLength="3348.96" waitingTime="136.00" waitingCount="6" stopTime="0.00" timeLoss="189.52" rerouteNo="0" devices="vehroute_42 tripinfo_42 fcd_42" vType="DEFAULT_VEHTYPE" speedFactor="1.09" vaporized=""/>
    <tripinfo id="45" depart="1499.00" departLane="a74_0" departPos="5.10" departSpeed="0.00" departDelay="0.85" arrival="1849.00" arrivalLane="b2[1][1][1]b_1" arrivalPos="325.74" arrivalSpeed="13.85" duration="350.00" routeLength="3348.96" waitingTime="66.00" waitingCount="4" stopTime="0.00" timeLoss="125.43" rerouteNo="0" devices="vehroute_45 tripinfo_45 fcd_45" vType="DEFAULT_VEHTYPE" speedFactor="1.09" vaporized=""/>
    <tripinfo id="46" depart="1534.00" departLane="a74_0" departPos="5.10" departSpeed="0.00" departDelay="0.10" arrival="1850.00" arrivalLane="b2[1][1][1]b_1" arrivalPos="325.74" arrivalSpeed="13.68" duration="316.00" routeLength="3348.96" waitingTime="24.00" waitingCount="1" stopTime="0.00" timeLoss="72.00" rerouteNo="0" devices="vehroute_46 tripinfo_46 fcd_46" vType="DEFAULT_VEHTYPE" speedFactor="1.00" vaporized=""/>
    <tripinfo id="43" depart="1451.00" departLane="a74_0" departPos="5.10" departSpeed="0.00" departDelay="0.27" arrival="1852.00" arrivalLane="b2[1][1][1]b_0" arrivalPos="325.74" arrivalSpeed="13.78" duration="401.00" routeLength="3356.41" waitingTime="109.00" waitingCount="6" stopTime="0.00" timeLoss="165.83" rerouteNo="0" devices="vehroute_43 tripinfo_43 fcd_43" vType="DEFAULT_VEHTYPE" speedFactor="1.04" vaporized=""/>
    <tripinfo id="41" depart="1430.00" departLane="a74_0" departPos="5.10" departSpeed="0.00" departDelay="0.87" arrival="1854.00" arrivalLane="b2[1][1][1]b_0" arrivalPos="325.74" arrivalSpeed="12.00" duration="424.00" routeLength="3351.92" waitingTime="108.00" waitingCount="5" stopTime="0.00" timeLoss="168.33" rerouteNo="0" devices="vehroute_41 tripinfo_41 fcd_41" vType="DEFAULT_VEHTYPE" speedFactor="0.96" vaporized=""/>
    <tripinfo id="48" depart="1583.00" departLane="a210_0" departPos="5.10" departSpeed="0.00" departDelay="0.76" arrival="1885.00" arrivalLane="b17[1]_0" arrivalPos="187.21" arrivalSpeed="11.23" duration="302.00" routeLength="2779.71" waitingTime="34.00" waitingCount="3" stopTime="0.00" timeLoss="69.76" rerouteNo="0" devices="vehroute_48 tripinfo_48 fcd_48" vType="DEFAULT_VEHTYPE" speedFactor="0.88" vaporized=""/>
    <tripinfo id="47" depart="1557.00" departLane="a74_0" departPos="5.10" departSpeed="0.00" departDelay="0.01" arrival="1984.00" arrivalLane="b2[1][1][1]b_0" arrivalPos="325.74" arrivalSpeed="11.89" duration="427.00" routeLength="3356.41" waitingTime="111.00" waitingCount="4" stopTime="0.00" timeLoss="154.78" rerouteNo="0" devices="vehroute_47 tripinfo_47 fcd_47" vType="DEFAULT_VEHTYPE" speedFactor="0.90" vaporized=""/>
    <tripinfo id="52" depart="1733.00" departLane="a210_0" departPos="5.10" departSpeed="0.00" departDelay="0.16" arrival="1998.00" arrivalLane="b17[1]_0" arrivalPos="187.21" arrivalSpeed="13.56" duration="265.00" routeLength="2779.71" waitingTime="27.00" waitingCount="3" stopTime="0.00" timeLoss="64.06" rerouteNo="0" devices="vehroute_52 tripinfo_52 fcd_52" vType="DEFAULT_VEHTYPE" speedFactor="1.02" vaporized=""/>
    <tripinfo id="51" depart="1656.00" departLane="a74_0" departPos="5.10" departSpeed="0.00" departDelay="0.72" arrival="2102.00" arrivalLane="b2[1][1][1]b_0" arrivalPos="325.74" arrivalSpeed="15.64" duration="446.00" routeLength="3348.96" waitingTime="164.00" waitingCount="3" stopTime="0.00" timeLoss="237.09" rerouteNo="0" devices="vehroute_51 tripinfo_51 fcd_51" vType="DEFAULT_VEHTYPE" speedFactor="1.17" vaporized=""/>
    <tripinfo id="53" depart="1754.00" departLane="a74_0" departPos="5.10" departSpeed="0.00" departDelay="0.58" arrival="2104.00" arrivalLane="b2[1][1][1]b_0" arrivalPos="325.74" arrivalSpeed="14.76" duration="350.00" routeLength="3356.41" waitingTime="90.00" waitingCount="3" stopTime="0.00" timeLoss="126.30" rerouteNo="0" devices="vehroute_53 tripinfo_53 fcd_53" vType="DEFAULT_VEHTYPE" speedFactor="1.10" vaporized=""/>
    <tripinfo id="49" depart="1610.00" departLane="a74_0" departPos="5.10" departSpeed="0.00" departDelay="0.07" arrival="2111.00" arrivalLane="b2[1][1][1]b_0" arrivalPos="325.74" arrivalSpeed="11.62" duration="501.00" routeLength="3351.92" waitingTime="165.00" waitingCount="3" stopTime="0.00" timeLoss="213.93" rerouteNo="0" devices="vehroute_49 tripinfo_49 fcd_49" vType="DEFAULT_VEHTYPE" speedFactor="0.85" vaporized=""/>
    <tripinfo id="50" depart="1620.00" departLane="a74_0" departPos="5.10" departSpeed="0.00" departDelay="0.78" arrival="2113.00" arrivalLane="b2[1][1][1]b_0" arrivalPos="325.74" arrivalSpeed="10.78" duration="493.00" routeLength="3348.96" waitingTime="167.00" waitingCount="4" stopTime="0.00" timeLoss="208.29" rerouteNo="0" devices="vehroute_50 tripinfo_50 fcd_50" vType="DEFAULT_VEHTYPE" speedFactor="0.85" vaporized=""/>
    <tripinfo id="54" depart="1790.00" departLane="a210_0" departPos="5.10" departSpeed="0.00" departDelay="0.93" arrival="2121.00" arrivalLane="b17[1]_0" arrivalPos="187.21" arrivalSpeed="13.32" duration="331.00" routeLength="2779.71" waitingTime="84.00" waitingCount="5" stopTime="0.00" timeLoss="128.59" rerouteNo="0" devices="vehroute_54 tripinfo_54 fcd_54" vType="DEFAULT_VEHTYPE" speedFactor="1.00" vaporized=""/>
    <tripinfo id="55" depart="1810.00" departLane="a210_0" departPos="5.10" departSpeed="0.00" departDelay="0.76" arrival="2124.00" arrivalLane="b17[1]_0" arrivalPos="187.21" arrivalSpeed="12.70" duration="314.00" routeLength="2779.71" waitingTime="62.00" waitingCount="3" stopTime="0.00" timeLoss="108.66" rerouteNo="0" devices="vehroute_55 tripinfo_55 fcd_55" vType="DEFAULT_VEHTYPE" speedFactor="1.00" vaporized=""/>
    <tripinfo id="57" depart="1834.00" departLane="a74_0" departPos="5.10" departSpeed="0.00" departDelay="0.08" arrival="2228.00" arrivalLane="b2[1][1][1]b_0" arrivalPos="325.74" arrivalSpeed="15.37" duration="394.00" routeLength="3356.41" waitingTime="136.00" waitingCount="4" stopTime="0.00" timeLoss="180.24" rerouteNo="0" devices="vehroute_57 tripinfo_57 fcd_57" vType="DEFAULT_VEHTYPE" speedFactor="1.14" vaporized=""/>
    <tripinfo id="58" depart="1857.00" departLane="a74_0" departPos="5.10" departSpeed="0.00" departDelay="0.55" arrival="2230.00" arrivalLane="b2[1][1][1]b_0" arrivalPos="325.74" arrivalSpeed="13.27" duration="373.00" routeLength="3351.92" waitingTime="92.00" waitingCount="3" stopTime="0.00" timeLoss="134.45" rerouteNo="0" devices="vehroute_58 tripinfo_58 fcd_58" vType="DEFAULT_VEHTYPE" speedFactor="1.02" vaporized=""/>
    <tripinfo id="56" depart="1823.00" departLane="a74_0" departPos="5.10" departSpeed="0.00" departDelay="0.89" arrival="2234.00" arrivalLane="b2[1][1][1]b_1" arrivalPos="325.74" arrivalSpeed="11.77" duration="411.00" routeLength="3348.96" waitingTime="95.00" waitingCount="4" stopTime="0.00" timeLoss="139.28" rerouteNo="0" devices="vehroute_56 tripinfo_56 fcd_56" vType="DEFAULT_VEHTYPE" speedFactor="0.90" vaporized=""/>
    <tripinfo id="59" depart="1898.00" departLane="a74_0" departPos="5.10" departSpeed="0.00" departDelay="0.65" arrival="2234.00" arrivalLane="b2[1][1][1]b_0" arrivalPos="325.74" arrivalSpeed="12.39" duration="336.00" routeLength="3351.92" waitingTime="42.00" waitingCount="4" stopTime="0.00" timeLoss="84.69" rerouteNo="0" devices="vehroute_59 tripinfo_59 fcd_59" vType="DEFAULT_VEHTYPE" speedFactor="0.97" vaporized=""/>
    <tripinfo id="61" depart="1994.00" departLane="a74_0" departPos="5.10" departSpeed="0.00" departDelay="0.31" arrival="2353.00" arrivalLane="b2[1][1][1]b_1" arrivalPos="325.74" arrivalSpeed="15.38" duration="359.00" routeLength="3348.96" waitingTime="94.00" waitingCount="3" stopTime="0.00" timeLoss="141.36" rerouteNo="0" devices="vehroute_61 tripinfo_61 fcd_61" vType="DEFAULT_VEHTYPE" speedFactor="1.12" vaporized=""/>
    <tripinfo id="60" depart="1979.00" departLane="a74_0" departPos="5.10" departSpeed="0.00" departDelay="0.69" arrival="2354.00" arrivalLane="b2[1][1][1]b_0" arrivalPos="325.74" arrivalSpeed="14.74" duration="375.00" routeLength="3356.41" waitingTime="104.00" waitingCount="4" stopTime="0.00" timeLoss="148.80" rerouteNo="0" devices="vehroute_60 tripinfo_60 fcd_60" vType="DEFAULT_VEHTYPE" speedFactor="1.08" vaporized=""/>
    <tripinfo id="62" depart="2163.00" departLane="a74_0" departPos="5.10" departSpeed="0.00" departDelay="0.86" arrival="2480.00" arrivalLane="b2[1][1][1]b_0" arrivalPos="325.74" arrivalSpeed="13.28" duration="317.00" routeLength="3351.92" waitingTime="37.00" waitingCount="4" stopTime="0.00" timeLoss="76.70" rerouteNo="0" devices="vehroute_62 tripinfo_62 fcd_62" vType="DEFAULT_VEHTYPE" speedFactor="1.02" vaporized=""/>
    <tripinfo id="65" depart="2231.00" departLane="a210_0" departPos="5.10" departSpeed="0.00" departDelay="0.48" arrival="2510.00" arrivalLane="b17[1]_0" arrivalPos="187.21" arrivalSpeed="11.40" duration="279.00" routeLength="2779.71" waitingTime="15.00" waitingCount="1" stopTime="0.00" timeLoss="47.66" rerouteNo="0" devices="vehroute_65 tripinfo_65 fcd_65" vType="DEFAULT_VEHTYPE" speedFactor="0.88" vaporized=""/>
    <tripinfo id="63" depart="2183.00" departLane="a74_0" departPos="5.10" departSpeed="0.00" departDelay="0.49" arrival="2606.00" arrivalLane="b2[1][1][1]b_0" arrivalPos="325.74" arrivalSpeed="12.49" duration="423.00" routeLength="3351.92" waitingTime="135.00" waitingCount="4" stopTime="0.00" timeLoss="175.62" rerouteNo="0" devices="vehroute_63 tripinfo_63 fcd_63" vType="DEFAULT_VEHTYPE" speedFactor="0.99" vaporized=""/>
    <tripinfo id="64" depart="2215.00" departLane="a74_0" departPos="5.10" departSpeed="0.00" departDelay="0.21" arrival="2608.00" arrivalLane="b2[1][1][1]b_1" arrivalPos="325.74" arrivalSpeed="12.82" duration="393.00" routeLength="3351.92" waitingTime="87.00" waitingCount="4" stopTime="0.00" timeLoss="131.78" rerouteNo="0" devices="vehroute_64 tripinfo_64 fcd_64" vType="DEFAULT_VEHTYPE" speedFactor="0.94" vaporized=""/>
    <tripinfo id="68" depart="2308.00" departLane="a74_0" departPos="5.10" departSpeed="0.00" departDelay="0.50" arrival="2608.00" arrivalLane="b2[1][1][1]b_0" arrivalPos="325.74" arrivalSpeed="13.73" duration="300.00" routeLength="3351.92" waitingTime="25.00" waitingCount="2" stopTime="0.00" timeLoss="65.12" rerouteNo="0" devices="vehroute_68 tripinfo_68 fcd_68" vType="DEFAULT_VEHTYPE" speedFactor="1.04" vaporized=""/>