<?xml version="1.0" encoding="UTF-8"?>

<!-- generated on 2025-03-21 18:08:48 by Eclipse SUMO sumo Version 1.21.0
<sumoConfiguration xmlns:xsi="http://www.w3.org/2001/XMLSchema-instance" xsi:noNamespaceSchemaLocation="http://sumo.dlr.de/xsd/sumoConfiguration.xsd">

    <input>
        <net-file value="${STATICPATH}/joined_lanes.net.xml"/>
        <route-files value="${SIMULATIONPATH}/generatedRoutes.rou.xml"/>
        <additional-files value="${STATICPATH}/detectors.add.xml,${STATICPATH}/joined_vtypes.add.xml,${STATICPATH}/joined_tls.add.xml"/>
    </input>

    <output>
        <fcd-output value="${SIMULATIONPATH}/fcd.xml"/>
        <queue-output value="${SIMULATIONPATH}/queue.xml"/>
        <summary-output value="${SIMULATIONPATH}/summary.xml"/>
        <tripinfo-output value="${SIMULATIONPATH}/tripinfos.xml"/>
        <vehroute-output value="${SIMULATIONPATH}/vehroute.xml"/>
        <save-state.prefix value="configs\state"/>
    </output>

    <processing>
        <ignore-junction-blocker value="1"/>
        <ignore-route-errors value="true"/>
        <time-to-teleport value="-1"/>
    </processing>

    <report>
        <log value="C:/Users/fabio/Desktop/sumo_log.txt"/>
        <no-step-log value="true"/>
    </report>

    <emissions>
        <phemlight-path value="configs\./PHEMlight/"/>
    </emissions>

    <traci_server>
        <remote-port value="60311"/>
    </traci_server>

</sumoConfiguration>
-->

<routes xmlns:xsi="http://www.w3.org/2001/XMLSchema-instance" xsi:noNamespaceSchemaLocation="http://sumo.dlr.de/xsd/routes_file.xsd">
    <vehicle id="0" depart="40.00" arrival="395.00">
        <route edges="a210 a43[0] a43[1] a115 a110 a185 a92 a90 am91 a88 a187 a191 a17 a71 b38[0] b38[0]a b37 b26 b26.-170 b17[0] b17[1]"/>
    </vehicle>

    <vehicle id="2" depart="93.00" arrival="400.00">
        <route edges="a210 a43[0] a43[1] a115 a110 a185 a92 a90 am91 a88 a187 a191 a17 a71 b38[0] b38[0]a b37 b26 b26.-170 b17[0] b17[1]"/>
    </vehicle>

    <vehicle id="3" depart="131.00" arrival="401.00">
        <route edges="a210 a43[0] a43[1] a115 a110 a185 a92 a90 am91 a88 a187 a191 a17 a71 b38[0] b38[0]a b37 b26 b26.-170 b17[0] b17[1]"/>
    </vehicle>

    <vehicle id="1" depart="70.00" arrival="493.00">
        <route edges="a74 a72[1] a69 a161 a122 a1b a1 a204a[0] a124 b12 b50[0] b50[1] b50[1]a a181 a18 a17 a71 b2[0] b2[1][0] b2[1][1][0] b2[1][1][1] b2[1][1][1]b"/>
    </vehicle>

    <vehicle id="4" depart="209.00" arrival="522.00">
        <route edges="a210 a43[0] a43[1] a115 a110 a185 a92 a90 am91 a88 a187 a191 a17 a71 b38[0] b38[0]a b37 b26 b26.-170 b17[0] b17[1]"/>
    </vehicle>

    <vehicle id="5" depart="212.00" arrival="536.00">
        <route edges="a210 a43[0] a43[1] a115 a110 a185 a92 a90 am91 a88 a187 a191 a17 a71 b38[0] b38[0]a b37 b26 b26.-170 b17[0] b17[1]"/>
    </vehicle>

    <vehicle id="6" depart="221.00" arrival="621.00">
        <route edges="a74 a72[1] a69 a161 a122 a1b a1 a204a[0] a124 b12 b50[0] b50[1] b50[1]a a181 a18 a17 a71 b2[0] b2[1][0] b2[1][1][0] b2[1][1][1] b2[1][1][1]b"/>
    </vehicle>

    <vehicle id="8" depart="246.00" arrival="623.00">
        <route edges="a74 a72[1] a69 a161 a122 a1b a1 a204a[0] a124 b12 b50[0] b50[1] b50[1]a a181 a18 a17 a71 b2[0] b2[1][0] b2[1][1][0] b2[1][1][1] b2[1][1][1]b"/>
    </vehicle>

    <vehicle id="7" depart="225.00" arrival="628.00">
        <route edges="a74 a72[1] a69 a161 a122 a1b a1 a204a[0] a124 b12 b50[0] b50[1] b50[1]a a181 a18 a17 a71 b2[0] b2[1][0] b2[1][1][0] b2[1][1][1] b2[1][1][1]b"/>
    </vehicle>

    <vehicle id="12" depart="381.00" arrival="643.00">
        <route edges="a210 a43[0] a43[1] a115 a110 a185 a92 a90 am91 a88 a187 a191 a17 a71 b38[0] b38[0]a b37 b26 b26.-170 b17[0] b17[1]"/>
    </vehicle>

    <vehicle id="10" depart="316.00" arrival="745.00">
        <route edges="a74 a72[1] a69 a161 a122 a1b a1 a204a[0] a124 b12 b50[0] b50[1] b50[1]a a181 a18 a17 a71 b2[0] b2[1][0] b2[1][1][0] b2[1][1][1] b2[1][1][1]b"/>
    </vehicle>

    <vehicle id="11" depart="364.00" arrival="747.00">
        <route edges="a74 a72[1] a69 a161 a122 a1b a1 a204a[0] a124 b12 b50[0] b50[1] b50[1]a a181 a18 a17 a71 b2[0] b2[1][0] b2[1][1][0] b2[1][1][1] b2[1][1][1]b"/>
    </vehicle>

    <vehicle id="9" depart="292.00" arrival="754.00">
        <route edges="a74 a72[1] a69 a161 a122 a1b a1 a204a[0] a124 b12 b50[0] b50[1] b50[1]a a181 a18 a17 a71 b2[0] b2[1][0] b2[1][1][0] b2[1][1][1] b2[1][1][1]b"/>
    </vehicle>

    <vehicle id="14" depart="437.00" arrival="770.00">
        <route edges="a210 a43[0] a43[1] a115 a110 a185 a92 a90 am91 a88 a187 a191 a17 a71 b38[0] b38[0]a b37 b26 b26.-170 b17[0] b17[1]"/>
    </vehicle>

    <vehicle id="15" depart="471.00" arrival="775.00">
        <route edges="a210 a43[0] a43[1] a115 a110 a185 a92 a90 am91 a88 a187 a191 a17 a71 b38[0] b38[0]a b37 b26 b26.-170 b17[0] b17[1]"/>
    </vehicle>

    <vehicle id="16" depart="478.00" arrival="779.00">
        <route edges="a210 a43[0] a43[1] a115 a110 a185 a92 a90 am91 a88 a187 a191 a17 a71 b38[0] b38[0]a b37 b26 b26.-170 b17[0] b17[1]"/>
    </vehicle>

    <vehicle id="18" depart="494.00" arrival="781.00">
        <route edges="a210 a43[0] a43[1] a115 a110 a185 a92 a90 am91 a88 a187 a191 a17 a71 b38[0] b38[0]a b37 b26 b26.-170 b17[0] b17[1]"/>
    </vehicle>

    <vehicle id="13" depart="419.00" arrival="869.00">
        <route edges="a74 a72[1] a69 a161 a122 a1b a1 a204a[0] a124 b12 b50[0] b50[1] b50[1]a a181 a18 a17 a71 b2[0] b2[1][0] b2[1][1][0] b2[1][1][1] b2[1][1][1]b"/>
    </vehicle>

    <vehicle id="19" depart="513.00" arrival="869.00">
        <route edges="a74 a72[1] a69 a161 a122 a1b a1 a204a[0] a124 b12 b50[0] b50[1] b50[1]a a181 a18 a17 a71 b2[0] b2[1][0] b2[1][1][0] b2[1][1][1] b2[1][1][1]b"/>
    </vehicle>

    <vehicle id="17" depart="487.00" arrival="874.00">
        <route edges="a74 a72[1] a69 a161 a122 a1b a1 a204a[0] a124 b12 b50[0] b50[1] b50[1]a a181 a18 a17 a71 b2[0] b2[1][0] b2[1][1][0] b2[1][1][1] b2[1][1][1]b"/>
    </vehicle>

    <vehicle id="20" depart="527.00" arrival="874.00">
        <route edges="a74 a72[1] a69 a161 a122 a1b a1 a204a[0] a124 b12 b50[0] b50[1] b50[1]a a181 a18 a17 a71 b2[0] b2[1][0] b2[1][1][0] b2[1][1][1] b2[1][1][1]b"/>
    </vehicle>

    <vehicle id="22" depart="625.00" arrival="1017.00">
        <route edges="a74 a72[1] a69 a161 a122 a1b a1 a204a[0] a124 b12 b50[0] b50[1] b50[1]a a181 a18 a17 a71 b2[0] b2[1][0] b2[1][1][0] b2[1][1][1] b2[1][1][1]b"/>
    </vehicle>

    <vehicle id="21" depart="548.00" arrival="1103.00">
        <route edges="a74 a72[1] a69 a161 a122 a1b a1 a204a[0] a124 b12 b50[0] b50[1] b50[1]a a181 a18 a17 a71 b2[0] b2[1][0] b2[1][1][0] b2[1][1][1] b2[1][1][1]b"/>
    </vehicle>

    <vehicle id="23" depart="630.00" arrival="1145.00">
        <route edges="a74 a72[1] a69 a161 a122 a1b a1 a204a[0] a124 b12 b50[0] b50[1] b50[1]a a181 a18 a17 a71 b2[0] b2[1][0] b2[1][1][0] b2[1][1][1] b2[1][1][1]b"/>
    </vehicle>

    <vehicle id="28" depart="936.00" arrival="1247.00">
        <route edges="a210 a43[0] a43[1] a115 a110 a185 a92 a90 am91 a88 a187 a191 a17 a71 b38[0] b38[0]a b37 b26 b26.-170 b17[0] b17[1]"/>
    </vehicle>

    <vehicle id="27" depart="862.00" arrival="1268.00">
        <route edges="a74 a72[1] a69 a161 a122 a1b a1 a204a[0] a124 b12 b50[0] b50[1] b50[1]a a181 a18 a17 a71 b2[0] b2[1][0] b2[1][1][0] b2[1][1][1] b2[1][1][1]b"/>
    </vehicle>

    <vehicle id="26" depart="778.00" arrival="1269.00">
        <route edges="a74 a72[1] a69 a161 a122 a1b a1 a204a[0] a124 b12 b50[0] b50[1] b50[1]a a181 a18 a17 a71 b2[0] b2[1][0] b2[1][1][0] b2[1][1][1] b2[1][1][1]b"/>
    </vehicle>

    <vehicle id="24" depart="701.00" arrival="1272.00">
        <route edges="a74 a72[1] a69 a161 a122 a1b a1 a204a[0] a124 b12 b50[0] b50[1] b50[1]a a181 a18 a17 a71 b2[0] b2[1][0] b2[1][1][0] b2[1][1][1] b2[1][1][1]b"/>
    </vehicle>

    <vehicle id="25" depart="751.00" arrival="1272.00">
        <route edges="a74 a72[1] a69 a161 a122 a1b a1 a204a[0] a124 b12 b50[0] b50[1] b50[1]a a181 a18 a17 a71 b2[0] b2[1][0] b2[1][1][0] b2[1][1][1] b2[1][1][1]b"/>
    </vehicle>

    <vehicle id="29" depart="948.00" arrival="1354.00">
        <route edges="a74 a72[1] a69 a161 a122 a1b a1 a204a[0] a124 b12 b50[0] b50[1] b50[1]a a181 a18 a17 a71 b2[0] b2[1][0] b2[1][1][0] b2[1][1][1] b2[1][1][1]b"/>
    </vehicle>

    <vehicle id="33" depart="1100.00" arrival="1367.00">
        <route edges="a210 a43[0] a43[1] a115 a110 a185 a92 a90 am91 a88 a187 a191 a17 a71 b38[0] b38[0]a b37 b26 b26.-170 b17[0] b17[1]"/>
    </vehicle>

    <vehicle id="30" depart="1092.00" arrival="1462.00">
        <route edges="a74 a72[1] a69 a161 a122 a1b a1 a204a[0] a124 b12 b50[0] b50[1] b50[1]a a181 a18 a17 a71 b2[0] b2[1][0] b2[1][1][0] b2[1][1][1] b2[1][1][1]b"/>
    </vehicle>

    <vehicle id="31" depart="1095.00" arrival="1464.00">
        <route edges="a74 a72[1] a69 a161 a122 a1b a1 a204a[0] a124 b12 b50[0] b50[1] b50[1]a a181 a18 a17 a71 b2[0] b2[1][0] b2[1][1][0] b2[1][1][1] b2[1][1][1]b"/>
    </vehicle>

    <vehicle id="35" depart="1123.00" arrival="1473.00">
        <route edges="a74 a72[1] a69 a161 a122 a1b a1 a204a[0] a124 b12 b50[0] b50[1] b50[1]a a181 a18 a17 a71 b2[0] b2[1][0] b2[1][1][0] b2[1][1][1] b2[1][1][1]b"/>
    </vehicle>

    <vehicle id="32" depart="1098.00" arrival="1474.00">
        <route edges="a74 a72[1] a69 a161 a122 a1b a1 a204a[0] a124 b12 b50[0] b50[1] b50[1]a a181 a18 a17 a71 b2[0] b2[1][0] b2[1][1][0] b2[1][1][1] b2[1][1][1]b"/>
    </vehicle>

    <vehicle id="34" depart="1103.00" arrival="1477.00">
        <route edges="a74 a72[1] a69 a161 a122 a1b a1 a204a[0] a124 b12 b50[0] b50[1] b50[1]a a181 a18 a17 a71 b2[0] b2[1][0] b2[1][1][0] b2[1][1][1] b2[1][1][1]b"/>
    </vehicle>

    <vehicle id="36" depart="1246.00" arrival="1509.00">
        <route edges="a210 a43[0] a43[1] a115 a110 a185 a92 a90 am91 a88 a187 a191 a17 a71 b38[0] b38[0]a b37 b26 b26.-170 b17[0] b17[1]"/>
    </vehicle>

    <vehicle id="37" depart="1297.00" arrival="1583.00">
        <route edges="a74 a72[1] a69 a161 a122 a1b a1 a204a[0] a124 b12 b50[0] b50[1] b50[1]a a181 a18 a17 a71 b2[0] b2[1][0] b2[1][1][0] b2[1][1][1] b2[1][1][1]b"/>
    </vehicle>

    <vehicle id="39" depart="1324.00" arrival="1619.00">
        <route edges="a74 a72[1] a69 a161 a122 a1b a1 a204a[0] a124 b12 b50[0] b50[1] b50[1]a a181 a18 a17 a71 b2[0] b2[1][0] b2[1][1][0] b2[1][1][1] b2[1][1][1]b"/>
    </vehicle>

    <vehicle id="38" depart="1324.00" arrival="1625.00">
        <route edges="a210 a43[0] a43[1] a115 a110 a185 a92 a90 am91 a88 a187 a191 a17 a71 b38[0] b38[0]a b37 b26 b26.-170 b17[0] b17[1]"/>
    </vehicle>

    <vehicle id="40" depart="1371.00" arrival="1720.00">
        <route edges="a74 a72[1] a69 a161 a122 a1b a1 a204a[0] a124 b12 b50[0] b50[1] b50[1]a a181 a18 a17 a71 b2[0] b2[1][0] b2[1][1][0] b2[1][1][1] b2[1][1][1]b"/>
    </vehicle>

    <vehicle id="44" depart="1491.00" arrival="1751.00">
        <route edges="a210 a43[0] a43[1] a115 a110 a185 a92 a90 am91 a88 a187 a191 a17 a71 b38[0] b38[0]a b37 b26 b26.-170 b17[0] b17[1]"/>
    </vehicle>

    <vehicle id="42" depart="1436.00" arrival="1849.00">
        <route edges="a74 a72[1] a69 a161 a122 a1b a1 a204a[0] a124 b12 b50[0] b50[1] b50[1]a a181 a18 a17 a71 b2[0] b2[1][0] b2[1][1][0] b2[1][1][1] b2[1][1][1]b"/>
    </vehicle>

    <vehicle id="45" depart="1499.00" arrival="1849.00">
        <route edges="a74 a72[1] a69 a161 a122 a1b a1 a204a[0] a124 b12 b50[0] b50[1] b50[1]a a181 a18 a17 a71 b2[0] b2[1][0] b2[1][1][0] b2[1][1][1] b2[1][1][1]b"/>
    </vehicle>

    <vehicle id="46" depart="1534.00" arrival="1850.00">
        <route edges="a74 a72[1] a69 a161 a122 a1b a1 a204a[0] a124 b12 b50[0] b50[1] b50[1]a a181 a18 a17 a71 b2[0] b2[1][0] b2[1][1][0] b2[1][1][1] b2[1][1][1]b"/>
    </vehicle>

    <vehicle id="43" depart="1451.00" arrival="1852.00">
        <route edges="a74 a72[1] a69 a161 a122 a1b a1 a204a[0] a124 b12 b50[0] b50[1] b50[1]a a181 a18 a17 a71 b2[0] b2[1][0] b2[1][1][0] b2[1][1][1] b2[1][1][1]b"/>
    </vehicle>

    <vehicle id="41" depart="1430.00" arrival="1854.00">
        <route edges="a74 a72[1] a69 a161 a122 a1b a1 a204a[0] a124 b12 b50[0] b50[1] b50[1]a a181 a18 a17 a71 b2[0] b2[1][0] b2[1][1][0] b2[1][1][1] b2[1][1][1]b"/>
    </vehicle>

    <vehicle id="48" depart="1583.00" arrival="1885.00">
        <route edges="a210 a43[0] a43[1] a115 a110 a185 a92 a90 am91 a88 a187 a191 a17 a71 b38[0] b38[0]a b37 b26 b26.-170 b17[0] b17[1]"/>
    </vehicle>

    <vehicle id="47" depart="1557.00" arrival="1984.00">
        <route edges="a74 a72[1] a69 a161 a122 a1b a1 a204a[0] a124 b12 b50[0] b50[1] b50[1]a a181 a18 a17 a71 b2[0] b2[1][0] b2[1][1][0] b2[1][1][1] b2[1][1][1]b"/>
    </vehicle>

    <vehicle id="52" depart="1733.00" arrival="1998.00">
        <route edges="a210 a43[0] a43[1] a115 a110 a185 a92 a90 am91 a88 a187 a191 a17 a71 b38[0] b38[0]a b37 b26 b26.-170 b17[0] b17[1]"/>
    </vehicle>

    <vehicle id="51" depart="1656.00" arrival="2102.00">
        <route edges="a74 a72[1] a69 a161 a122 a1b a1 a204a[0] a124 b12 b50[0] b50[1] b50[1]a a181 a18 a17 a71 b2[0] b2[1][0] b2[1][1][0] b2[1][1][1] b2[1][1][1]b"/>
    </vehicle>

    <vehicle id="53" depart="1754.00" arrival="2104.00">
        <route edges="a74 a72[1] a69 a161 a122 a1b a1 a204a[0] a124 b12 b50[0] b50[1] b50[1]a a181 a18 a17 a71 b2[0] b2[1][0] b2[1][1][0] b2[1][1][1] b2[1][1][1]b"/>
    </vehicle>

    <vehicle id="49" depart="1610.00" arrival="2111.00">
        <route edges="a74 a72[1] a69 a161 a122 a1b a1 a204a[0] a124 b12 b50[0] b50[1] b50[1]a a181 a18 a17 a71 b2[0] b2[1][0] b2[1][1][0] b2[1][1][1] b2[1][1][1]b"/>
    </vehicle>

    <vehicle id="50" depart="1620.00" arrival="2113.00">
        <route edges="a74 a72[1] a69 a161 a122 a1b a1 a204a[0] a124 b12 b50[0] b50[1] b50[1]a a181 a18 a17 a71 b2[0] b2[1][0] b2[1][1][0] b2[1][1][1] b2[1][1][1]b"/>
    </vehicle>

    <vehicle id="54" depart="1790.00" arrival="2121.00">
        <route edges="a210 a43[0] a43[1] a115 a110 a185 a92 a90 am91 a88 a187 a191 a17 a71 b38[0] b38[0]a b37 b26 b26.-170 b17[0] b17[1]"/>
    </vehicle>

    <vehicle id="55" depart="1810.00" arrival="2124.00">
        <route edges="a210 a43[0] a43[1] a115 a110 a185 a92 a90 am91 a88 a187 a191 a17 a71 b38[0] b38[0]a b37 b26 b26.-170 b17[0] b17[1]"/>
    </vehicle>

    <vehicle id="57" depart="1834.00" arrival="2228.00">
        <route edges="a74 a72[1] a69 a161 a122 a1b a1 a204a[0] a124 b12 b50[0] b50[1] b50[1]a a181 a18 a17 a71 b2[0] b2[1][0] b2[1][1][0] b2[1][1][1] b2[1][1][1]b"/>
    </vehicle>

    <vehicle id="58" depart="1857.00" arrival="2230.00">
        <route edges="a74 a72[1] a69 a161 a122 a1b a1 a204a[0] a124 b12 b50[0] b50[1] b50[1]a a181 a18 a17 a71 b2[0] b2[1][0] b2[1][1][0] b2[1][1][1] b2[1][1][1]b"/>
    </vehicle>

    <vehicle id="56" depart="1823.00" arrival="2234.00">
        <route edges="a74 a72[1] a69 a161 a122 a1b a1 a204a[0] a124 b12 b50[0] b50[1] b50[1]a a181 a18 a17 a71 b2[0] b2[1][0] b2[1][1][0] b2[1][1][1] b2[1][1][1]b"/>
    </vehicle>

    <vehicle id="59" depart="1898.00" arrival="2234.00">
        <route edges="a74 a72[1] a69 a161 a122 a1b a1 a204a[0] a124 b12 b50[0] b50[1] b50[1]a a181 a18 a17 a71 b2[0] b2[1][0] b2[1][1][0] b2[1][1][1] b2[1][1][1]b"/>
    </vehicle>

    <vehicle id="61" depart="1994.00" arrival="2353.00">
        <route edges="a74 a72[1] a69 a161 a122 a1b a1 a204a[0] a124 b12 b50[0] b50[1] b50[1]a a181 a18 a17 a71 b2[0] b2[1][0] b2[1][1][0] b2[1][1][1] b2[1][1][1]b"/>
    </vehicle>

    <vehicle id="60" depart="1979.00" arrival="2354.00">
        <route edges="a74 a72[1] a69 a161 a122 a1b a1 a204a[0] a124 b12 b50[0] b50[1] b50[1]a a181 a18 a17 a71 b2[0] b2[1][0] b2[1][1][0] b2[1][1][1] b2[1][1][1]b"/>
    </vehicle>

    <vehicle id="62" depart="2163.00" arrival="2480.00">
        <route edges="a74 a72[1] a69 a161 a122 a1b a1 a204a[0] a124 b12 b50[0] b50[1] b50[1]a a181 a18 a17 a71 b2[0] b2[1][0] b2[1][1][0] b2[1][1][1] b2[1][1][1]b"/>
    </vehicle>

    <vehicle id="65" depart="2231.00" arrival="2510.00">
        <route edges="a210 a43[0] a43[1] a115 a110 a185 a92 a90 am91 a88 a187 a191 a17 a71 b38[0] b38[0]a b37 b26 b26.-170 b17[0] b17[1]"/>
    </vehicle>

    <vehicle id="63" depart="2183.00" arrival="2606.00">
        <route edges="a74 a72[1] a69 a161 a122 a1b a1 a204a[0] a124 b12 b50[0] b50[1] b50[1]a a181 a18 a17 a71 b2[0] b2[1][0] b2[1][1][0] b2[1][1][1] b2[1][1][1]b"/>
    </vehicle>

    <vehicle id="64" depart="2215.00" arrival="2608.00">
        <route edges="a74 a72[1] a69 a161 a122 a1b a1 a204a[0] a124 b12 b50[0] b50[1] b50[1]a a181 a18 a17 a71 b2[0] b2[1][0] b2[1][1][0] b2[1][1][1] b2[1][1][1]b"/>
    </vehicle>

    <vehicle id="68" depart="2308.00" arrival="2608.00">
        <route edges="a74 a72[1] a69 a161 a122 a1b a1 a204a[0] a124 b12 b50[0] b50[1] b50[1]a a181 a18 a17 a71 b2[0] b2[1][0] b2[1][1][0] b2[1][1][1] b2[1][1][1]b"/>
    </vehicle>

    <vehicle id="66" depart="2247.00" arrival="2609.00">
        <route edges="a74 a72[1] a69 a161 a122 a1b a1 a204a[0] a124 b12 b50[0] b50[1] b50[1]a a181 a18 a17 a71 b2[0] b2[1][0] b2[1][1][0] b2[1][1][1] b2[1][1][1]b"/>
    </vehicle>

    <vehicle id="67" depart="2307.00" arrival="2619.00">
        <route edges="a210 a43[0] a43[1] a115 a110 a185 a92 a90 am91 a88 a187 a191 a17 a71 b38[0] b38[0]a b37 b26 b26.-170 b17[0] b17[1]"/>
    </vehicle>

    <vehicle id="69" depart="2341.00" arrival="2735.00">
        <route edges="a210 a43[0] a43[1] a115 a110 a185 a92 a90 am91 a88 a187 a191 a17 a71 b38[0] b38[0]a b37 b26 b26.-170 b17[0] b17[1]"/>
    </vehicle>

    <vehicle id="70" depart="2492.00" arrival="2824.00">
        <route edges="a74 a72[1] a69 a161 a122 a1b a1 a204a[0] a124 b12 b50[0] b50[1] b50[1]a a181 a18 a17 a71 b2[0] b2[1][0] b2[1][1][0] b2[1][1][1] b2[1][1][1]b"/>
    </vehicle>

    <vehicle id="72" depart="2503.00" arrival="2833.00">
        <route edges="a74 a72[1] a69 a161 a122 a1b a1 a204a[0] a124 b12 b50[0] b50[1] b50[1]a a181 a18 a17 a71 b2[0] b2[1][0] b2[1][1][0] b2[1][1][1] b2[1][1][1]b"/>
    </vehicle>

    <vehicle id="71" depart="2502.00" arrival="2862.00">
        <route edges="a210 a43[0] a43[1] a115 a110 a185 a92 a90 am91 a88 a187 a191 a17 a71 b38[0] b38[0]a b37 b26 b26.-170 b17[0] b17[1]"/>
    </vehicle>

    <vehicle id="73" depart="2642.00" arrival="2945.00">
        <route edges="a74 a72[1] a69 a161 a122 a1b a1 a204a[0] a124 b12 b50[0] b50[1] b50[1]a a181 a18 a17 a71 b2[0] b2[1][0] b2[1][1][0] b2[1][1][1] b2[1][1][1]b"/>
    </vehicle>

    <vehicle id="74" depart="2738.00" arrival="2984.00">
        <route edges="a210 a43[0] a43[1] a115 a110 a185 a92 a90 am91 a88 a187 a191 a17 a71 b38[0] b38[0]a b37 b26 b26.-170 b17[0] b17[1]"/>
    </vehicle>

    <vehicle id="76" depart="2770.00" arrival="3070.00">
        <route edges="a74 a72[1] a69 a161 a122 a1b a1 a204a[0] a124 b12 b50[0] b50[1] b50[1]a a181 a18 a17 a71 b2[0] b2[1][0] b2[1][1][0] b2[1][1][1] b2[1][1][1]b"/>
    </vehicle>

    <vehicle id="75" depart="2754.00" arrival="3073.00">
        <route edges="a74 a72[1] a69 a161 a122 a1b a1 a204a[0] a124 b12 b50[0] b50[1] b50[1]a a181 a18 a17 a71 b2[0] b2[1][0] b2[1][1][0] b2[1][1][1] b2[1][1][1]b"/>
    </vehicle>

    <vehicle id="78" depart="2845.00" arrival="3110.00">
        <route edges="a210 a43[0] a43[1] a115 a110 a185 a92 a90 am91 a88 a187 a191 a17 a71 b38[0] b38[0]a b37 b26 b26.-170 b17[0] b17[1]"/>
    </vehicle>

    <vehicle id="79" depart="2902.00" arrival="3202.00">
        <route edges="a74 a72[1] a69 a161 a122 a1b a1 a204a[0] a124 b12 b50[0] b50[1] b50[1]a a181 a18 a17 a71 b2[0] b2[1][0] b2[1][1][0] b2[1][1][1] b2[1][1][1]b"/>
    </vehicle>

    <vehicle id="77" depart="2811.00" arrival="3204.00">
        <route edges="a74 a72[1] a69 a161 a122 a1b a1 a204a[0] a124 b12 b50[0] b50[1] b50[1]a a181 a18 a17 a71 b2[0] b2[1][0] b2[1][1][0] b2[1][1][1] b2[1][1][1]b"/>
    </vehicle>

    <vehicle id="80" depart="2931.00" arrival="3226.00">
        <route edges="a210 a43[0] a43[1] a115 a110 a185 a92 a90 am91 a88 a187 a191 a17 a71 b38[0] b38[0]a b37 b26 b26.-170 b17[0] b17[1]"/>
    </vehicle>

    <vehicle id="81" depart="2943.00" arrival="3333.00">
        <route edges="a74 a72[1] a69 a161 a122 a1b a1 a204a[0] a124 b12 b50[0] b50[1] b50[1]a a181 a18 a17 a71 b2[0] b2[1][0] b2[1][1][0] b2[1][1][1] b2[1][1][1]b"/>
    </vehicle>

    <vehicle id="82" depart="2961.00" arrival="3333.00">
        <route edges="a74 a72[1] a69 a161 a122 a1b a1 a204a[0] a124 b12 b50[0] b50[1] b50[1]a a181 a18 a17 a71 b2[0] b2[1][0] b2[1][1][0] b2[1][1][1] b2[1][1][1]b"/>
    </vehicle>

    <vehicle id="83" depart="2980.00" arrival="3336.00">
        <route edges="a74 a72[1] a69 a161 a122 a1b a1 a204a[0] a124 b12 b50[0] b50[1] b50[1]a a181 a18 a17 a71 b2[0] b2[1][0] b2[1][1][0] b2[1][1][1] b2[1][1][1]b"/>
    </vehicle>

    <vehicle id="84" depart="3066.00" arrival="3455.00">
        <route edges="a74 a72[1] a69 a161 a122 a1b a1 a204a[0] a124 b12 b50[0] b50[1] b50[1]a a181 a18 a17 a71 b2[0] b2[1][0] b2[1][1][0] b2[1][1][1] b2[1][1][1]b"/>
    </vehicle>

    <vehicle id="85" depart="3104.00" arrival="3459.00">
        <route edges="a74 a72[1] a69 a161 a122 a1b a1 a204a[0] a124 b12 b50[0] b50[1] b50[1]a a181 a18 a17 a71 b2[0] b2[1][0] b2[1][1][0] b2[1][1][1] b2[1][1][1]b"/>
    </vehicle>

    <vehicle id="87" depart="3161.00" arrival="3472.00">
        <route edges="a210 a43[0] a43[1] a115 a110 a185 a92 a90 am91 a88 a187 a191 a17 a71 b38[0] b38[0]a b37 b26 b26.-170 b17[0] b17[1]"/>
    </vehicle>

    <vehicle id="86" depart="3125.00" arrival="3583.00">
        <route edges="a74 a72[1] a69 a161 a122 a1b a1 a204a[0] a124 b12 b50[0] b50[1] b50[1]a a181 a18 a17 a71 b2[0] b2[1][0] b2[1][1][0] b2[1][1][1] b2[1][1][1]b"/>
    </vehicle>

    <vehicle id="88" depart="3192.00" arrival="3583.00">
        <route edges="a74 a72[1] a69 a161 a122 a1b a1 a204a[0] a124 b12 b50[0] b50[1] b50[1]a a181 a18 a17 a71 b2[0] b2[1][0] b2[1][1][0] b2[1][1][1] b2[1][1][1]b"/>
    </vehicle>

    <vehicle id="90" depart="3322.00" arrival="3596.00">
        <route edges="a210 a43[0] a43[1] a115 a110 a185 a92 a90 am91 a88 a187 a191 a17 a71 b38[0] b38[0]a b37 b26 b26.-170 b17[0] b17[1]"/>
    </vehicle>

    <vehicle id="89" depart="3310.00" arrival="3707.00">
        <route edges="a74 a72[1] a69 a161 a122 a1b a1 a204a[0] a124 b12 b50[0] b50[1] b50[1]a a181 a18 a17 a71 b2[0] b2[1][0] b2[1][1][0] b2[1][1][1] b2[1][1][1]b"/>
    </vehicle>

    <vehicle id="91" depart="3351.00" arrival="3711.00">
        <route edges="a74 a72[1] a69 a161 a122 a1b a1 a204a[0] a124 b12 b50[0] b50[1] b50[1]a a181 a18 a17 a71 b2[0] b2[1][0] b2[1][1][0] b2[1][1][1] b2[1][1][1]b"/>
    </vehicle>

    <vehicle id="94" depart="3477.00" arrival="3831.00">
        <route edges="a74 a72[1] a69 a161 a122 a1b a1 a204a[0] a124 b12 b50[0] b50[1] b50[1]a a181 a18 a17 a71 b2[0] b2[1][0] b2[1][1][0] b2[1][1][1] b2[1][1][1]b"/>
    </vehicle>

    <vehicle id="95" depart="3513.00" arrival="3832.00">
        <route edges="a74 a72[1] a69 a161 a122 a1b a1 a204a[0] a124 b12 b50[0] b50[1] b50[1]a a181 a18 a17 a71 b2[0] b2[1][0] b2[1][1][0] b2[1][1][1] b2[1][1][1]b"/>
    </vehicle>

    <vehicle id="93" depart="3468.00" arrival="3837.00">
        <route edges="a74 a72[1] a69 a161 a122 a1b a1 a204a[0] a124 b12 b50[0] b50[1] b50[1]a a181 a18 a17 a71 b2[0] b2[1][0] b2[1][1][0] b2[1][1][1] b2[1][1][1]b"/>
    </vehicle>

    <vehicle id="92" depart="3374.00" arrival="3839.00">
        <route edges="a74 a72[1] a69 a161 a122 a1b a1 a204a[0] a124 b12 b50[0] b50[1] b50[1]a a181 a18 a17 a71 b2[0] b2[1][0] b2[1][1][0] b2[1][1][1] b2[1][1][1]b"/>
    </vehicle>

    <vehicle id="96" depart="3542.00" arrival="3843.00">
        <route edges="a210 a43[0] a43[1] a115 a110 a185 a92 a90 am91 a88 a187 a191 a17 a71 b38[0] b38[0]a b37 b26 b26.-170 b17[0] b17[1]"/>
    </vehicle>

    <vehicle id="98" depart="3582.00" arrival="3844.00">
        <route edges="a210 a43[0] a43[1] a115 a110 a185 a92 a90 am91 a88 a187 a191 a17 a71 b38[0] b38[0]a b37 b26 b26.-170 b17[0] b17[1]"/>
    </vehicle>

    <vehicle id="99" depart="3589.00" arrival="3955.00">
        <route edges="a74 a72[1] a69 a161 a122 a1b a1 a204a[0] a124 b12 b50[0] b50[1] b50[1]a a181 a18 a17 a71 b2[0] b2[1][0] b2[1][1][0] b2[1][1][1] b2[1][1][1]b"/>
    </vehicle>

    <vehicle id="97" depart="3572.00" arrival="3961.00">
        <route edges="a74 a72[1] a69 a161 a122 a1b a1 a204a[0] a124 b12 b50[0] b50[1] b50[1]a a181 a18 a17 a71 b2[0] b2[1][0] b2[1][1][0] b2[1][1][1] b2[1][1][1]b"/>
    </vehicle>

</routes>
