<?xml version="1.0" encoding="UTF-8"?>

<!-- generated on 2025-03-21 18:02:22 by Eclipse SUMO sumo Version 1.21.0
<sumoConfiguration xmlns:xsi="http://www.w3.org/2001/XMLSchema-instance" xsi:noNamespaceSchemaLocation="http://sumo.dlr.de/xsd/sumoConfiguration.xsd">

    <input>
        <net-file value="${STATICPATH}/joined_lanes.net.xml"/>
        <route-files value="${SIMULATIONPATH}/generatedRoutes.rou.xml"/>
        <additional-files value="${STATICPATH}/detectors.add.xml,${STATICPATH}/joined_vtypes.add.xml,${STATICPATH}/joined_tls.add.xml"/>
    </input>

    <output>
        <fcd-output value="${SIMULATIONPATH}/fcd.xml"/>
        <queue-output value="${SIMULATIONPATH}/queue.xml"/>
        <summary-output value="${SIMULATIONPATH}/summary.xml"/>
        <tripinfo-output value="${SIMULATIONPATH}/tripinfos.xml"/>
        <vehroute-output value="${SIMULATIONPATH}/vehroute.xml"/>
        <save-state.prefix value="configs\state"/>
    </output>

    <processing>
        <ignore-junction-blocker value="1"/>
        <ignore-route-errors value="true"/>
        <time-to-teleport value="-1"/>
    </processing>

    <report>
        <log value="C:/Users/fabio/Desktop/sumo_log.txt"/>
        <no-step-log value="true"/>
    </report>

    <emissions>
        <phemlight-path value="configs\./PHEMlight/"/>
    </emissions>

    <traci_server>
        <remote-port value="60286"/>
    </traci_server>

</sumoConfiguration>
-->

<tripinfos xmlns:xsi="http://www.w3.org/2001/XMLSchema-instance" xsi:noNamespaceSchemaLocation="http://sumo.dlr.de/xsd/tripinfo_file.xsd">
    <tripinfo id="0" depart="38.00" departLane="a36_0" departPos="5.10" departSpeed="0.00" departDelay="0.46" arrival="300.00" arrivalLane="b4[1][1][0]_0" arrivalPos="170.25" arrivalSpeed="14.70" duration="262.00" routeLength="2709.37" waitingTime="22.00" waitingCount="3" stopTime="0.00" timeLoss="73.05" rerouteNo="0" devices="vehroute_0 tripinfo_0 fcd_0" vType="DEFAULT_VEHTYPE" speedFactor="1.06" vaporized=""/>
    <tripinfo id="1" depart="46.00" departLane="a36_0" departPos="5.10" departSpeed="0.00" departDelay="0.23" arrival="308.00" arrivalLane="b4[1][1][0]_0" arrivalPos="170.25" arrivalSpeed="12.84" duration="262.00" routeLength="2709.37" waitingTime="3.00" waitingCount="1" stopTime="0.00" timeLoss="48.06" rerouteNo="0" devices="vehroute_1 tripinfo_1 fcd_1" vType="DEFAULT_VEHTYPE" speedFactor="0.94" vaporized=""/>
    <tripinfo id="3" depart="137.00" departLane="a36_0" departPos="5.10" departSpeed="0.00" departDelay="0.12" arrival="429.00" arrivalLane="b4[1][1][0]_1" arrivalPos="170.25" arrivalSpeed="14.49" duration="292.00" routeLength="2696.82" waitingTime="40.00" waitingCount="5" stopTime="0.00" timeLoss="107.18" rerouteNo="0" devices="vehroute_3 tripinfo_3 fcd_3" vType="DEFAULT_VEHTYPE" speedFactor="1.08" vaporized=""/>
    <tripinfo id="2" depart="129.00" departLane="a36_0" departPos="5.10" departSpeed="0.00" departDelay="0.94" arrival="430.00" arrivalLane="b4[1][1][0]_0" arrivalPos="170.25" arrivalSpeed="13.04" duration="301.00" routeLength="2709.37" waitingTime="48.00" waitingCount="5" stopTime="0.00" timeLoss="103.66" rerouteNo="0" devices="vehroute_2 tripinfo_2 fcd_2" vType="DEFAULT_VEHTYPE" speedFactor="1.01" vaporized=""/>
    <tripinfo id="4" depart="158.00" departLane="a36_0" departPos="5.10" departSpeed="0.00" departDelay="0.55" arrival="435.00" arrivalLane="b4[1][1][0]_0" arrivalPos="170.25" arrivalSpeed="14.13" duration="277.00" routeLength="2709.37" waitingTime="28.00" waitingCount="3" stopTime="0.00" timeLoss="81.56" rerouteNo="0" devices="vehroute_4 tripinfo_4 fcd_4" vType="DEFAULT_VEHTYPE" speedFactor="1.03" vaporized=""/>
    <tripinfo id="6" depart="194.00" departLane="a36_0" departPos="5.10" departSpeed="0.00" departDelay="0.11" arrival="567.00" arrivalLane="b4[1][1][0]_1" arrivalPos="170.25" arrivalSpeed="13.27" duration="373.00" routeLength="2696.82" waitingTime="94.00" waitingCount="4" stopTime="0.00" timeLoss="181.99" rerouteNo="0" devices="vehroute_6 tripinfo_6 fcd_6" vType="DEFAULT_VEHTYPE" speedFactor="1.05" vaporized=""/>
    <tripinfo id="5" depart="173.00" departLane="a36_0" departPos="5.10" departSpeed="0.00" departDelay="0.81" arrival="573.00" arrivalLane="b4[1][1][0]_0" arrivalPos="170.25" arrivalSpeed="11.48" duration="400.00" routeLength="2709.37" waitingTime="107.00" waitingCount="5" stopTime="0.00" timeLoss="158.47" rerouteNo="0" devices="vehroute_5 tripinfo_5 fcd_5" vType="DEFAULT_VEHTYPE" speedFactor="0.83" vaporized=""/>
    <tripinfo id="7" depart="248.00" departLane="a36_0" departPos="5.10" departSpeed="0.00" departDelay="0.63" arrival="575.00" arrivalLane="b4[1][1][0]_0" arrivalPos="170.25" arrivalSpeed="11.91" duration="327.00" routeLength="2709.37" waitingTime="49.00" waitingCount="2" stopTime="0.00" timeLoss="100.57" rerouteNo="0" devices="vehroute_7 tripinfo_7 fcd_7" vType="DEFAULT_VEHTYPE" speedFactor="0.89" vaporized=""/>
    <tripinfo id="8" depart="250.00" departLane="a161_0" departPos="5.10" departSpeed="0.00" departDelay="0.68" arrival="628.00" arrivalLane="b2[1][1][1]b_0" arrivalPos="325.74" arrivalSpeed="12.88" duration="378.00" routeLength="2865.78" waitingTime="118.00" waitingCount="4" stopTime="0.00" timeLoss="155.16" rerouteNo="0" devices="vehroute_8 tripinfo_8 fcd_8" vType="DEFAULT_VEHTYPE" speedFactor="0.94" vaporized=""/>
    <tripinfo id="10" depart="298.00" departLane="a36_0" departPos="5.10" departSpeed="0.00" departDelay="0.58" arrival="685.00" arrivalLane="b4[1][1][0]_1" arrivalPos="170.25" arrivalSpeed="14.19" duration="387.00" routeLength="2696.82" waitingTime="117.00" waitingCount="5" stopTime="0.00" timeLoss="205.00" rerouteNo="0" devices="vehroute_10 tripinfo_10 fcd_10" vType="DEFAULT_VEHTYPE" speedFactor="1.09" vaporized=""/>
    <tripinfo id="13" depart="380.00" departLane="a36_0" departPos="5.10" departSpeed="0.00" departDelay="0.68" arrival="689.00" arrivalLane="b4[1][1][0]_1" arrivalPos="170.25" arrivalSpeed="15.09" duration="309.00" routeLength="2696.82" waitingTime="49.00" waitingCount="3" stopTime="0.00" timeLoss="131.42" rerouteNo="0" devices="vehroute_13 tripinfo_13 fcd_13" vType="DEFAULT_VEHTYPE" speedFactor="1.12" vaporized=""/>
    <tripinfo id="9" depart="276.00" departLane="a36_0" departPos="5.10" departSpeed="0.00" departDelay="0.90" arrival="692.00" arrivalLane="b4[1][1][0]_0" arrivalPos="170.25" arrivalSpeed="10.67" duration="416.00" routeLength="2709.37" waitingTime="130.00" waitingCount="5" stopTime="0.00" timeLoss="181.59" rerouteNo="0" devices="vehroute_9 tripinfo_9 fcd_9" vType="DEFAULT_VEHTYPE" speedFactor="0.86" vaporized=""/>
    <tripinfo id="11" depart="343.00" departLane="a36_0" departPos="5.10" departSpeed="0.00" departDelay="0.96" arrival="694.00" arrivalLane="b4[1][1][0]_0" arrivalPos="170.25" arrivalSpeed="13.47" duration="351.00" routeLength="2709.37" waitingTime="82.00" waitingCount="3" stopTime="0.00" timeLoss="155.51" rerouteNo="0" devices="vehroute_11 tripinfo_11 fcd_11" vType="DEFAULT_VEHTYPE" speedFactor="1.03" vaporized=""/>
    <tripinfo id="14" depart="383.00" departLane="a36_0" departPos="5.10" departSpeed="0.00" departDelay="2.50" arrival="696.00" arrivalLane="b4[1][1][0]_0" arrivalPos="170.25" arrivalSpeed="12.63" duration="313.00" routeLength="2709.37" waitingTime="41.00" waitingCount="3" stopTime="0.00" timeLoss="111.41" rerouteNo="0" devices="vehroute_14 tripinfo_14 fcd_14" vType="DEFAULT_VEHTYPE" speedFactor="0.99" vaporized=""/>
    <tripinfo id="16" depart="411.00" departLane="a36_0" departPos="5.10" departSpeed="0.00" departDelay="0.76" arrival="704.00" arrivalLane="b4[1][1][0]_0" arrivalPos="170.25" arrivalSpeed="11.71" duration="293.00" routeLength="2709.37" waitingTime="2.00" waitingCount="1" stopTime="0.00" timeLoss="64.31" rerouteNo="0" devices="vehroute_16 tripinfo_16 fcd_16" vType="DEFAULT_VEHTYPE" speedFactor="0.88" vaporized=""/>
    <tripinfo id="12" depart="368.00" departLane="a161_0" departPos="5.10" departSpeed="0.00" departDelay="0.26" arrival="750.00" arrivalLane="b2[1][1][1]b_0" arrivalPos="325.74" arrivalSpeed="14.30" duration="382.00" routeLength="2870.27" waitingTime="141.00" waitingCount="4" stopTime="0.00" timeLoss="181.95" rerouteNo="0" devices="vehroute_12 tripinfo_12 fcd_12" vType="DEFAULT_VEHTYPE" speedFactor="1.05" vaporized=""/>
    <tripinfo id="15" depart="399.00" departLane="a161_0" departPos="5.10" departSpeed="0.00" departDelay="0.09" arrival="753.00" arrivalLane="b2[1][1][1]b_0" arrivalPos="325.74" arrivalSpeed="12.58" duration="354.00" routeLength="2868.74" waitingTime="92.00" waitingCount="2" stopTime="0.00" timeLoss="129.05" rerouteNo="0" devices="vehroute_15 tripinfo_15 fcd_15" vType="DEFAULT_VEHTYPE" speedFactor="0.93" vaporized=""/>
    <tripinfo id="17" depart="451.00" departLane="a36_0" departPos="5.10" departSpeed="0.00" departDelay="0.16" arrival="804.00" arrivalLane="b4[1][1][0]_0" arrivalPos="170.25" arrivalSpeed="13.07" duration="353.00" routeLength="2709.37" waitingTime="89.00" waitingCount="5" stopTime="0.00" timeLoss="139.09" rerouteNo="0" devices="vehroute_17 tripinfo_17 fcd_17" vType="DEFAULT_VEHTYPE" speedFactor="0.94" vaporized=""/>
    <tripinfo id="18" depart="480.00" departLane="a36_0" departPos="5.10" departSpeed="0.00" departDelay="0.68" arrival="807.00" arrivalLane="b4[1][1][0]_0" arrivalPos="170.25" arrivalSpeed="12.40" duration="327.00" routeLength="2709.37" waitingTime="55.00" waitingCount="5" stopTime="0.00" timeLoss="112.35" rerouteNo="0" devices="vehroute_18 tripinfo_18 fcd_18" vType="DEFAULT_VEHTYPE" speedFactor="0.94" vaporized=""/>
    <tripinfo id="19" depart="564.00" departLane="a36_0" departPos="5.10" departSpeed="0.00" departDelay="0.10" arrival="911.00" arrivalLane="b4[1][1][0]_0" arrivalPos="170.25" arrivalSpeed="15.03" duration="347.00" routeLength="2709.37" waitingTime="115.00" waitingCount="6" stopTime="0.00" timeLoss="175.25" rerouteNo="0" devices="vehroute_19 tripinfo_19 fcd_19" vType="DEFAULT_VEHTYPE" speedFactor="1.16" vaporized=""/>
    <tripinfo id="20" depart="590.00" departLane="a36_0" departPos="5.10" departSpeed="0.00" departDelay="0.74" arrival="921.00" arrivalLane="b4[1][1][0]_0" arrivalPos="170.25" arrivalSpeed="12.96" duration="331.00" routeLength="2709.37" waitingTime="72.00" waitingCount="5" stopTime="0.00" timeLoss="133.62" rerouteNo="0" devices="vehroute_20 tripinfo_20 fcd_20" vType="DEFAULT_VEHTYPE" speedFactor="1.02" vaporized=""/>
    <tripinfo id="21" depart="651.00" departLane="a161_0" departPos="5.10" departSpeed="0.00" departDelay="0.86" arrival="981.00" arrivalLane="b2[1][1][1]b_0" arrivalPos="325.74" arrivalSpeed="13.76" duration="330.00" routeLength="2870.27" waitingTime="88.00" waitingCount="3" stopTime="0.00" timeLoss="122.49" rerouteNo="0" devices="vehroute_21 tripinfo_21 fcd_21" vType="DEFAULT_VEHTYPE" speedFactor="1.01" vaporized=""/>
    <tripinfo id="24" depart="821.00" departLane="a161_0" departPos="5.10" departSpeed="0.00" departDelay="0.77" arrival="1133.00" arrivalLane="b2[1][1][1]b_0" arrivalPos="325.74" arrivalSpeed="10.27" duration="312.00" routeLength="2873.23" waitingTime="29.00" waitingCount="2" stopTime="0.00" timeLoss="58.70" rerouteNo="0" devices="vehroute_24 tripinfo_24 fcd_24" vType="DEFAULT_VEHTYPE" speedFactor="0.83" vaporized=""/>
    <tripinfo id="22" depart="796.00" departLane="a36_0" departPos="5.10" departSpeed="0.00" departDelay="0.17" arrival="1170.00" arrivalLane="b4[1][1][0]_0" arrivalPos="170.25" arrivalSpeed="12.94" duration="374.00" routeLength="2709.37" waitingTime="116.00" waitingCount="6" stopTime="0.00" timeLoss="168.36" rerouteNo="0" devices="vehroute_22 tripinfo_22 fcd_22" vType="DEFAULT_VEHTYPE" speedFactor="0.97" vaporized=""/>
    <tripinfo id="23" depart="818.00" departLane="a36_0" departPos="5.10" departSpeed="0.00" departDelay="0.93" arrival="1177.00" arrivalLane="b4[1][1][0]_0" arrivalPos="170.25" arrivalSpeed="11.48" duration="359.00" routeLength="2709.37" waitingTime="79.00" waitingCount="5" stopTime="0.00" timeLoss="134.19" rerouteNo="0" devices="vehroute_23 tripinfo_23 fcd_23" vType="DEFAULT_VEHTYPE" speedFactor="0.89" vaporized=""/>
    <tripinfo id="29" depart="939.00" departLane="a161_0" departPos="5.10" departSpeed="0.00" departDelay="0.43" arrival="1230.00" arrivalLane="b2[1][1][1]b_0" arrivalPos="325.74" arrivalSpeed="12.73" duration="291.00" routeLength="2870.27" waitingTime="32.00" waitingCount="3" stopTime="0.00" timeLoss="66.26" rerouteNo="0" devices="vehroute_29 tripinfo_29 fcd_29" vType="DEFAULT_VEHTYPE" speedFactor="0.93" vaporized=""/>
    <tripinfo id="25" depart="877.00" departLane="a161_0" departPos="5.10" departSpeed="0.00" departDelay="0.48" arrival="1237.00" arrivalLane="b2[1][1][1]b_0" arrivalPos="325.74" arrivalSpeed="11.56" duration="360.00" routeLength="2868.74" waitingTime="94.00" waitingCount="1" stopTime="0.00" timeLoss="119.78" rerouteNo="0" devices="vehroute_25 tripinfo_25 fcd_25" vType="DEFAULT_VEHTYPE" speedFactor="0.87" vaporized=""/>
    <tripinfo id="26" depart="912.00" departLane="a36_0" departPos="5.10" departSpeed="0.00" departDelay="0.99" arrival="1299.00" arrivalLane="b4[1][1][0]_0" arrivalPos="170.25" arrivalSpeed="12.74" duration="387.00" routeLength="2709.37" waitingTime="118.00" waitingCount="5" stopTime="0.00" timeLoss="168.95" rerouteNo="0" devices="vehroute_26 tripinfo_26 fcd_26" vType="DEFAULT_VEHTYPE" speedFactor="0.92" vaporized=""/>
    <tripinfo id="27" depart="920.00" departLane="a36_0" departPos="5.10" departSpeed="0.00" departDelay="0.51" arrival="1300.00" arrivalLane="b4[1][1][0]_1" arrivalPos="170.25" arrivalSpeed="12.25" duration="380.00" routeLength="2696.82" waitingTime="106.00" waitingCount="5" stopTime="0.00" timeLoss="169.52" rerouteNo="0" devices="vehroute_27 tripinfo_27 fcd_27" vType="DEFAULT_VEHTYPE" speedFactor="0.95" vaporized=""/>
    <tripinfo id="28" depart="931.00" departLane="a36_0" departPos="5.10" departSpeed="0.00" departDelay="0.65" arrival="1301.00" arrivalLane="b4[1][1][0]_0" arrivalPos="170.25" arrivalSpeed="14.76" duration="370.00" routeLength="2709.37" waitingTime="97.00" waitingCount="3" stopTime="0.00" timeLoss="191.49" rerouteNo="0" devices="vehroute_28 tripinfo_28 fcd_28" vType="DEFAULT_VEHTYPE" speedFactor="1.13" vaporized=""/>
    <tripinfo id="30" depart="970.00" departLane="a36_0" departPos="5.10" departSpeed="0.00" departDelay="0.41" arrival="1302.00" arrivalLane="b4[1][1][0]_1" arrivalPos="170.25" arrivalSpeed="16.13" duration="332.00" routeLength="2696.82" waitingTime="68.00" waitingCount="2" stopTime="0.00" timeLoss="162.97" rerouteNo="0" devices="vehroute_30 tripinfo_30 fcd_30" vType="DEFAULT_VEHTYPE" speedFactor="1.18" vaporized=""/>
    <tripinfo id="31" depart="986.00" departLane="a36_0" departPos="5.10" departSpeed="0.00" departDelay="0.35" arrival="1303.00" arrivalLane="b4[1][1][0]_0" arrivalPos="170.25" arrivalSpeed="14.94" duration="317.00" routeLength="2709.37" waitingTime="66.00" waitingCount="1" stopTime="0.00" timeLoss="142.74" rerouteNo="0" devices="vehroute_31 tripinfo_31 fcd_31" vType="DEFAULT_VEHTYPE" speedFactor="1.15" vaporized=""/>
    <tripinfo id="33" depart="1141.00" departLane="a36_0" departPos="5.10" departSpeed="0.00" departDelay="0.08" arrival="1412.00" arrivalLane="b4[1][1][0]_1" arrivalPos="170.25" arrivalSpeed="15.93" duration="271.00" routeLength="2696.82" waitingTime="33.00" waitingCount="5" stopTime="0.00" timeLoss="100.98" rerouteNo="0" devices="vehroute_33 tripinfo_33 fcd_33" vType="DEFAULT_VEHTYPE" speedFactor="1.17" vaporized=""/>
    <tripinfo id="32" depart="1006.00" departLane="a36_0" departPos="5.10" departSpeed="0.00" departDelay="0.28" arrival="1414.00" arrivalLane="b4[1][1][0]_0" arrivalPos="170.25" arrivalSpeed="13.81" duration="408.00" routeLength="2709.37" waitingTime="154.00" waitingCount="6" stopTime="0.00" timeLoss="209.13" rerouteNo="0" devices="vehroute_32 tripinfo_32 fcd_32" vType="DEFAULT_VEHTYPE" speedFactor="1.01" vaporized=""/>
    <tripinfo id="34" depart="1153.00" departLane="a36_0" departPos="5.10" departSpeed="0.00" departDelay="0.78" arrival="1420.00" arrivalLane="b4[1][1][0]_0" arrivalPos="170.25" arrivalSpeed="13.19" duration="267.00" routeLength="2709.37" waitingTime="9.00" waitingCount="3" stopTime="0.00" timeLoss="65.34" rerouteNo="0" devices="vehroute_34 tripinfo_34 fcd_34" vType="DEFAULT_VEHTYPE" speedFactor="0.99" vaporized=""/>
    <tripinfo id="35" depart="1160.00" departLane="a36_0" departPos="5.10" departSpeed="0.00" departDelay="0.02" arrival="1421.00" arrivalLane="b4[1][1][0]_0" arrivalPos="170.25" arrivalSpeed="13.76" duration="261.00" routeLength="2709.37" waitingTime="6.00" waitingCount="2" stopTime="0.00" timeLoss="64.26" rerouteNo="0" devices="vehroute_35 tripinfo_35 fcd_35" vType="DEFAULT_VEHTYPE" speedFactor="1.02" vaporized=""/>
    <tripinfo id="36" depart="1278.00" departLane="a36_0" departPos="5.10" departSpeed="0.00" departDelay="0.57" arrival="1544.00" arrivalLane="b4[1][1][0]_0" arrivalPos="170.25" arrivalSpeed="12.58" duration="266.00" routeLength="2709.37" waitingTime="15.00" waitingCount="3" stopTime="0.00" timeLoss="58.98" rerouteNo="0" devices="vehroute_36 tripinfo_36 fcd_36" vType="DEFAULT_VEHTYPE" speedFactor="0.97" vaporized=""/>
    <tripinfo id="37" depart="1354.00" departLane="a36_0" departPos="5.10" departSpeed="0.00" departDelay="0.43" arrival="1648.00" arrivalLane="b4[1][1][0]_0" arrivalPos="170.25" arrivalSpeed="15.71" duration="294.00" routeLength="2709.37" waitingTime="66.00" waitingCount="5" stopTime="0.00" timeLoss="125.21" rerouteNo="0" devices="vehroute_37 tripinfo_37 fcd_37" vType="DEFAULT_VEHTYPE" speedFactor="1.18" vaporized=""/>
    <tripinfo id="38" depart="1391.00" departLane="a36_0" departPos="5.10" departSpeed="0.00" departDelay="0.14" arrival="1652.00" arrivalLane="b4[1][1][0]_1" arrivalPos="170.25" arrivalSpeed="14.99" duration="261.00" routeLength="2696.82" waitingTime="29.00" waitingCount="3" stopTime="0.00" timeLoss="80.31" rerouteNo="0" devices="vehroute_38 tripinfo_38 fcd_38" vType="DEFAULT_VEHTYPE" speedFactor="1.10" vaporized=""/>
    <tripinfo id="42" depart="1484.00" departLane="a161_0" departPos="5.10" departSpeed="0.00" departDelay="0.33" arrival="1715.00" arrivalLane="b2[1][1][1]b_0" arrivalPos="325.74" arrivalSpeed="15.11" duration="231.00" routeLength="2868.74" waitingTime="8.00" waitingCount="1" stopTime="0.00" timeLoss="39.21" rerouteNo="0" devices="vehroute_42 tripinfo_42 fcd_42" vType="DEFAULT_VEHTYPE" speedFactor="1.09" vaporized=""/>
    <tripinfo id="40" depart="1400.00" departLane="a161_0" departPos="5.10" departSpeed="0.00" departDelay="0.85" arrival="1717.00" arrivalLane="b2[1][1][1]b_0" arrivalPos="325.74" arrivalSpeed="13.39" duration="317.00" routeLength="2865.78" waitingTime="73.00" waitingCount="5" stopTime="0.00" timeLoss="113.62" rerouteNo="0" devices="vehroute_40 tripinfo_40 fcd_40" vType="DEFAULT_VEHTYPE" speedFactor="1.03" vaporized=""/>
    <tripinfo id="39" depart="1396.00" departLane="a161_0" departPos="5.10" departSpeed="0.00" departDelay="0.66" arrival="1729.00" arrivalLane="b2[1][1][1]b_0" arrivalPos="325.74" arrivalSpeed="12.07" duration="333.00" routeLength="2870.27" waitingTime="53.00" waitingCount="5" stopTime="0.00" timeLoss="100.00" rerouteNo="0" devices="vehroute_39 tripinfo_39 fcd_39" vType="DEFAULT_VEHTYPE" speedFactor="0.90" vaporized=""/>
    <tripinfo id="41" depart="1413.00" departLane="a36_0" departPos="5.10" departSpeed="0.00" departDelay="0.38" arrival="1788.00" arrivalLane="b4[1][1][0]_0" arrivalPos="170.25" arrivalSpeed="12.47" duration="375.00" routeLength="2709.37" waitingTime="114.00" waitingCount="5" stopTime="0.00" timeLoss="164.84" rerouteNo="0" devices="vehroute_41 tripinfo_41 fcd_41" vType="DEFAULT_VEHTYPE" speedFactor="0.96" vaporized=""/>
    <tripinfo id="44" depart="1596.00" departLane="a161_0" departPos="5.10" departSpeed="0.00" departDelay="0.22" arrival="1837.00" arrivalLane="b2[1][1][1]b_0" arrivalPos="325.74" arrivalSpeed="13.48" duration="241.00" routeLength="2873.23" waitingTime="15.00" waitingCount="2" stopTime="0.00" timeLoss="40.05" rerouteNo="0" devices="vehroute_44 tripinfo_44 fcd_44" vType="DEFAULT_VEHTYPE" speedFactor="1.04" vaporized=""/>
    <tripinfo id="43" depart="1528.00" departLane="a36_0" departPos="5.10" departSpeed="0.00" departDelay="0.53" arrival="1903.00" arrivalLane="b4[1][1][0]_0" arrivalPos="170.25" arrivalSpeed="13.13" duration="375.00" routeLength="2709.37" waitingTime="134.00" waitingCount="5" stopTime="0.00" timeLoss="182.30" rerouteNo="0" devices="vehroute_43 tripinfo_43 fcd_43" vType="DEFAULT_VEHTYPE" speedFactor="1.04" vaporized=""/>
    <tripinfo id="45" depart="1621.00" departLane="a36_0" departPos="5.10" departSpeed="0.00" departDelay="0.55" arrival="2023.00" arrivalLane="b4[1][1][0]_0" arrivalPos="170.25" arrivalSpeed="14.25" duration="402.00" routeLength="2709.37" waitingTime="155.00" waitingCount="6" stopTime="0.00" timeLoss="217.94" rerouteNo="0" devices="vehroute_45 tripinfo_45 fcd_45" vType="DEFAULT_VEHTYPE" speedFactor="1.09" vaporized=""/>
    <tripinfo id="46" depart="1624.00" departLane="a36_0" departPos="5.10" departSpeed="0.00" departDelay="1.77" arrival="2029.00" arrivalLane="b4[1][1][0]_0" arrivalPos="170.25" arrivalSpeed="13.18" duration="405.00" routeLength="2709.37" waitingTime="141.00" waitingCount="5" stopTime="0.00" timeLoss="203.06" rerouteNo="0" devices="vehroute_46 tripinfo_46 fcd_46" vType="DEFAULT_VEHTYPE" speedFactor="1.00" vaporized=""/>
    <tripinfo id="47" depart="1664.00" departLane="a36_0" departPos="5.10" departSpeed="0.00" departDelay="0.99" arrival="2039.00" arrivalLane="b4[1][1][0]_0" arrivalPos="170.25" arrivalSpeed="11.51" duration="375.00" routeLength="2709.37" waitingTime="96.00" waitingCount="4" stopTime="0.00" timeLoss="151.20" rerouteNo="0" devices="vehroute_47 tripinfo_47 fcd_47" vType="DEFAULT_VEHTYPE" speedFactor="0.90" vaporized=""/>
    <tripinfo id="50" depart="1750.00" departLane="a36_0" departPos="5.10" departSpeed="0.00" departDelay="0.34" arrival="2045.00" arrivalLane="b4[1][1][0]_0" arrivalPos="170.25" arrivalSpeed="11.18" duration="295.00" routeLength="2709.37" waitingTime="12.00" waitingCount="3" stopTime="0.00" timeLoss="60.21" rerouteNo="0" devices="vehroute_50 tripinfo_50 fcd_50" vType="DEFAULT_VEHTYPE" speedFactor="0.85" vaporized=""/>
    <tripinfo id="51" depart="1784.00" departLane="a161_0" departPos="5.10" departSpeed="0.00" departDelay="0.37" arrival="2091.00" arrivalLane="b2[1][1][1]b_0" arrivalPos="325.74" arrivalSpeed="15.04" duration="307.00" routeLength="2868.74" waitingTime="98.00" waitingCount="2" stopTime="0.00" timeLoss="128.16" rerouteNo="0" devices="vehroute_51 tripinfo_51 fcd_51" vType="DEFAULT_VEHTYPE" speedFactor="1.17" vaporized=""/>
    <tripinfo id="52" depart="1787.00" departLane="a161_0" departPos="5.10" departSpeed="0.00" departDelay="1.23" arrival="2093.00" arrivalLane="b2[1][1][1]b_0" arrivalPos="325.74" arrivalSpeed="13.09" duration="306.00" routeLength="2868.74" waitingTime="68.00" waitingCount="2" stopTime="0.00" timeLoss="100.71" rerouteNo="0" devices="vehroute_52 tripinfo_52 fcd_52" vType="DEFAULT_VEHTYPE" speedFactor="1.02" vaporized=""/>
    <tripinfo id="48" depart="1708.00" departLane="a161_0" departPos="5.10" departSpeed="0.00" departDelay="0.39" arrival="2100.00" arrivalLane="b2[1][1][1]b_1" arrivalPos="325.74" arrivalSpeed="11.30" duration="392.00" routeLength="2870.27" waitingTime="109.00" waitingCount="4" stopTime="0.00" timeLoss="153.76" rerouteNo="0" devices="vehroute_48 tripinfo_48 fcd_48" vType="DEFAULT_VEHTYPE" speedFactor="0.88" vaporized=""/>
    <tripinfo id="49" depart="1722.00" departLane="a161_0" departPos="5.10" departSpeed="0.00" departDelay="0.28" arrival="2101.00" arrivalLane="b2[1][1][1]b_0" arrivalPos="325.74" arrivalSpeed="11.41" duration="379.00" routeLength="2865.78" waitingTime="102.00" waitingCount="3" stopTime="0.00" timeLoss="134.07" rerouteNo="0" devices="vehroute_49 tripinfo_49 fcd_49" vType="DEFAULT_VEHTYPE" speedFactor="0.85" vaporized=""/>
    <tripinfo id="53" depart="1831.00" departLane="a36_0" departPos="5.10" departSpeed="0.00" departDelay="0.11" arrival="2146.00" arrivalLane="b4[1][1][0]_0" arrivalPos="170.25" arrivalSpeed="13.92" duration="315.00" routeLength="2709.37" waitingTime="74.00" waitingCount="6" stopTime="0.00" timeLoss="132.33" rerouteNo="0" devices="vehroute_53 tripinfo_53 fcd_53" vType="DEFAULT_VEHTYPE" speedFactor="1.10" vaporized=""/>
    <tripinfo id="54" depart="1853.00" departLane="a36_0" departPos="5.10" departSpeed="0.00" departDelay="0.23" arrival="2150.00" arrivalLane="b4[1][1][0]_1" arrivalPos="170.25" arrivalSpeed="12.96" duration="297.00" routeLength="2696.82" waitingTime="39.00" waitingCount="5" stopTime="0.00" timeLoss="99.31" rerouteNo="0" devices="vehroute_54 tripinfo_54 fcd_54" vType="DEFAULT_VEHTYPE" speedFactor="1.00" vaporized=""/>
    <tripinfo id="55" depart="1875.00" departLane="a36_0" departPos="5.10" departSpeed="0.00" departDelay="0.23" arrival="2155.00" arrivalLane="b4[1][1][0]_0" arrivalPos="170.25" arrivalSpeed="12.99" duration="280.00" routeLength="2709.37" waitingTime="23.00" waitingCount="2" stopTime="0.00" timeLoss="78.54" rerouteNo="0" devices="vehroute_55 tripinfo_55 fcd_55" vType="DEFAULT_VEHTYPE" speedFactor="1.00" vaporized=""/>
    <tripinfo id="56" depart="1959.00" departLane="a161_0" departPos="5.10" departSpeed="0.00" departDelay="0.54" arrival="2230.00" arrivalLane="b2[1][1][1]b_0" arrivalPos="325.74" arrivalSpeed="12.16" duration="271.00" routeLength="2868.74" waitingTime="9.00" waitingCount="2" stopTime="0.00" timeLoss="38.60" rerouteNo="0" devices="vehroute_56 tripinfo_56 fcd_56" vType="DEFAULT_VEHTYPE" speedFactor="0.90" vaporized=""/>
    <tripinfo id="58" depart="1981.00" departLane="a36_0" departPos="5.10" departSpeed="0.00" departDelay="0.67" arrival="2272.00" arrivalLane="b4[1][1][0]_0" arrivalPos="170.25" arrivalSpeed="13.51" duration="291.00" routeLength="2709.37" waitingTime="43.00" waitingCount="4" stopTime="0.00" timeLoss="96.43" rerouteNo="0" devices="vehroute_58 tripinfo_58 fcd_58" vType="DEFAULT_VEHTYPE" speedFactor="1.02" vaporized=""/>
    <tripinfo id="57" depart="1979.00" departLane="a161_0" departPos="5.10" departSpeed="0.00" departDelay="0.38" arrival="2349.00" arrivalLane="b2[1][1][1]b_0" arrivalPos="325.74" arrivalSpeed="15.50" duration="370.00" routeLength="2870.27" waitingTime="137.00" waitingCount="5" stopTime="0.00" timeLoss="186.35" rerouteNo="0" devices="vehroute_57 tripinfo_57 fcd_57" vType="DEFAULT_VEHTYPE" speedFactor="1.14" vaporized=""/>
    <tripinfo id="59" depart="2009.00" departLane="a161_0" departPos="5.10" departSpeed="0.00" departDelay="0.87" arrival="2353.00" arrivalLane="b2[1][1][1]b_0" arrivalPos="325.74" arrivalSpeed="12.90" duration="344.00" routeLength="2865.78" waitingTime="87.00" waitingCount="4" stopTime="0.00" timeLoss="128.90" rerouteNo="0" devices="vehroute_59 tripinfo_59 fcd_59" vType="DEFAULT_VEHTYPE" speedFactor="0.97" vaporized=""/>
    <tripinfo id="60" depart="2155.00" departLane="a161_0" departPos="5.10" departSpeed="0.00" departDelay="0.29" arrival="2475.00" arrivalLane="b2[1][1][1]b_0" arrivalPos="325.74" arrivalSpeed="14.04" duration="320.00" routeLength="2873.23" waitingTime="84.00" waitingCount="4" stopTime="0.00" timeLoss="126.98" rerouteNo="0" devices="vehroute_60 tripinfo_60 fcd_60" vType="DEFAULT_VEHTYPE" speedFactor="1.08" vaporized=""/>
    <tripinfo id="61" depart="2211.00" departLane="a36_0" departPos="5.10" departSpeed="0.00" departDelay="0.31" arrival="2512.00" arrivalLane="b4[1][1][0]_0" arrivalPos="170.25" arrivalSpeed="15.21" duration="301.00" routeLength="2709.37" waitingTime="63.00" waitingCount="5" stopTime="0.00" timeLoss="121.91" rerouteNo="0" devices="vehroute_61 tripinfo_61 fcd_61" vType="DEFAULT_VEHTYPE" speedFactor="1.12" vaporized=""/>
    <tripinfo id="62" depart="2220.00" departLane="a36_0" departPos="5.10" departSpeed="0.00" departDelay="0.60" arrival="2520.00" arrivalLane="b4[1][1][0]_0" arrivalPos="170.25" arrivalSpeed="13.85" duration="300.00" routeLength="2709.37" waitingTime="40.00" waitingCount="4" stopTime="0.00" timeLoss="103.08" rerouteNo="0" devices="vehroute_62 tripinfo_62 fcd_62" vType="DEFAULT_VEHTYPE" speedFactor="1.02" vaporized=""/>
    <tripinfo id="63" depart="2290.00" departLane="a36_0" departPos="5.10" departSpeed="0.00" departDelay="0.15" arrival="2645.00" arrivalLane="b4[1][1][0]_0" arrivalPos="170.25" arrivalSpeed="12.77" duration="355.00" routeLength="2709.37" waitingTime="99.00" waitingCount="5" stopTime="0.00" timeLoss="152.41" rerouteNo="0" devices="vehroute_63 tripinfo_63 fcd_63" vType="DEFAULT_VEHTYPE" speedFactor="0.99" vaporized=""/>
    <tripinfo id="64" depart="2347.00" departLane="a161_0" departPos="5.10" departSpeed="0.00" departDelay="0.84" arrival="2708.00" arrivalLane="b2[1][1][1]b_0" arrivalPos="325.74" arrivalSpeed="12.46" duration="361.00" routeLength="2868.74" waitingTime="108.00" waitingCount="2" stopTime="0.00" timeLoss="138.25" rerouteNo="0" devices="vehroute_64 tripinfo_64 fcd_64" vType="DEFAULT_VEHTYPE" speedFactor="0.94" vaporized=""/>
    <tripinfo id="66" depart="2373.00" departLane="a161_0" departPos="5.10" departSpeed="0.00" departDelay="0.47" arrival="2711.00" arrivalLane="b2[1][1][1]b_0" arrivalPos="325.74" arrivalSpeed="11.32" duration="338.00" routeLength="2868.74" waitingTime="79.00" waitingCount="1" stopTime="0.00" timeLoss="106.85" rerouteNo="0" devices="vehroute_66 tripinfo_66 fcd_66" vType="DEFAULT_VEHTYPE" speedFactor="0.91" vaporized=""/>
    <tripinfo id="65" depart="2372.00" departLane="a36_0" departPos="5.10" departSpeed="0.00" departDelay="0.71" arrival="2778.00" arrivalLane="b4[1][1][0]_0" arrivalPos="170.25" arrivalSpeed="11.77" duration="406.00" routeLength="2709.37" waitingTime="126.00" waitingCount="6" stopTime="0.00" timeLoss="178.98" rerouteNo="0" devices="vehroute_65 tripinfo_65 fcd_65" vType="DEFAULT_VEHTYPE" speedFactor="0.88" vaporized=""/>