<?xml version="1.0" encoding="UTF-8"?>

<!-- generated on 2025-03-21 18:02:22 by Eclipse SUMO sumo Version 1.21.0
<sumoConfiguration xmlns:xsi="http://www.w3.org/2001/XMLSchema-instance" xsi:noNamespaceSchemaLocation="http://sumo.dlr.de/xsd/sumoConfiguration.xsd">

    <input>
        <net-file value="${STATICPATH}/joined_lanes.net.xml"/>
        <route-files value="${SIMULATIONPATH}/generatedRoutes.rou.xml"/>
        <additional-files value="${STATICPATH}/detectors.add.xml,${STATICPATH}/joined_vtypes.add.xml,${STATICPATH}/joined_tls.add.xml"/>
    </input>

    <output>
        <fcd-output value="${SIMULATIONPATH}/fcd.xml"/>
        <queue-output value="${SIMULATIONPATH}/queue.xml"/>
        <summary-output value="${SIMULATIONPATH}/summary.xml"/>
        <tripinfo-output value="${SIMULATIONPATH}/tripinfos.xml"/>
        <vehroute-output value="${SIMULATIONPATH}/vehroute.xml"/>
        <save-state.prefix value="configs\state"/>
    </output>

    <processing>
        <ignore-junction-blocker value="1"/>
        <ignore-route-errors value="true"/>
        <time-to-teleport value="-1"/>
    </processing>

    <report>
        <log value="C:/Users/fabio/Desktop/sumo_log.txt"/>
        <no-step-log value="true"/>
    </report>

    <emissions>
        <phemlight-path value="configs\./PHEMlight/"/>
    </emissions>

    <traci_server>
        <remote-port value="60286"/>
    </traci_server>

</sumoConfiguration>
-->

<routes xmlns:xsi="http://www.w3.org/2001/XMLSchema-instance" xsi:noNamespaceSchemaLocation="http://sumo.dlr.de/xsd/routes_file.xsd">
    <vehicle id="0" depart="38.00" arrival="300.00">
        <route edges="a36 a40 a153 a87[0] a20001+87[1][0] a87[1][1] am90 am91 a88 a187 a191 a17 a71 b38[0] b38[0]a b37 b26 b26.-170 b15 b13[1] b4[0] b4[1][1][0]"/>
    </vehicle>

    <vehicle id="1" depart="46.00" arrival="308.00">
        <route edges="a36 a40 a153 a87[0] a20001+87[1][0] a87[1][1] am90 am91 a88 a187 a191 a17 a71 b38[0] b38[0]a b37 b26 b26.-170 b15 b13[1] b4[0] b4[1][1][0]"/>
    </vehicle>

    <vehicle id="3" depart="137.00" arrival="429.00">
        <route edges="a36 a40 a153 a87[0] a20001+87[1][0] a87[1][1] am90 am91 a88 a187 a191 a17 a71 b38[0] b38[0]a b37 b26 b26.-170 b15 b13[1] b4[0] b4[1][1][0]"/>
    </vehicle>

    <vehicle id="2" depart="129.00" arrival="430.00">
        <route edges="a36 a40 a153 a87[0] a20001+87[1][0] a87[1][1] am90 am91 a88 a187 a191 a17 a71 b38[0] b38[0]a b37 b26 b26.-170 b15 b13[1] b4[0] b4[1][1][0]"/>
    </vehicle>

    <vehicle id="4" depart="158.00" arrival="435.00">
        <route edges="a36 a40 a153 a87[0] a20001+87[1][0] a87[1][1] am90 am91 a88 a187 a191 a17 a71 b38[0] b38[0]a b37 b26 b26.-170 b15 b13[1] b4[0] b4[1][1][0]"/>
    </vehicle>

    <vehicle id="6" depart="194.00" arrival="567.00">
        <route edges="a36 a40 a153 a87[0] a20001+87[1][0] a87[1][1] am90 am91 a88 a187 a191 a17 a71 b38[0] b38[0]a b37 b26 b26.-170 b15 b13[1] b4[0] b4[1][1][0]"/>
    </vehicle>

    <vehicle id="5" depart="173.00" arrival="573.00">
        <route edges="a36 a40 a153 a87[0] a20001+87[1][0] a87[1][1] am90 am91 a88 a187 a191 a17 a71 b38[0] b38[0]a b37 b26 b26.-170 b15 b13[1] b4[0] b4[1][1][0]"/>
    </vehicle>

    <vehicle id="7" depart="248.00" arrival="575.00">
        <route edges="a36 a40 a153 a87[0] a20001+87[1][0] a87[1][1] am90 am91 a88 a187 a191 a17 a71 b38[0] b38[0]a b37 b26 b26.-170 b15 b13[1] b4[0] b4[1][1][0]"/>
    </vehicle>

    <vehicle id="8" depart="250.00" arrival="628.00">
        <route edges="a161 a122 a1b a1 a204a[0] a124 b12 b50[0] b50[1] b50[1]a a181 a18 a17 a71 b2[0] b2[1][0] b2[1][1][0] b2[1][1][1] b2[1][1][1]b"/>
    </vehicle>

    <vehicle id="10" depart="298.00" arrival="685.00">
        <route edges="a36 a40 a153 a87[0] a20001+87[1][0] a87[1][1] am90 am91 a88 a187 a191 a17 a71 b38[0] b38[0]a b37 b26 b26.-170 b15 b13[1] b4[0] b4[1][1][0]"/>
    </vehicle>

    <vehicle id="13" depart="380.00" arrival="689.00">
        <route edges="a36 a40 a153 a87[0] a20001+87[1][0] a87[1][1] am90 am91 a88 a187 a191 a17 a71 b38[0] b38[0]a b37 b26 b26.-170 b15 b13[1] b4[0] b4[1][1][0]"/>
    </vehicle>

    <vehicle id="9" depart="276.00" arrival="692.00">
        <route edges="a36 a40 a153 a87[0] a20001+87[1][0] a87[1][1] am90 am91 a88 a187 a191 a17 a71 b38[0] b38[0]a b37 b26 b26.-170 b15 b13[1] b4[0] b4[1][1][0]"/>
    </vehicle>

    <vehicle id="11" depart="343.00" arrival="694.00">
        <route edges="a36 a40 a153 a87[0] a20001+87[1][0] a87[1][1] am90 am91 a88 a187 a191 a17 a71 b38[0] b38[0]a b37 b26 b26.-170 b15 b13[1] b4[0] b4[1][1][0]"/>
    </vehicle>

    <vehicle id="14" depart="383.00" arrival="696.00">
        <route edges="a36 a40 a153 a87[0] a20001+87[1][0] a87[1][1] am90 am91 a88 a187 a191 a17 a71 b38[0] b38[0]a b37 b26 b26.-170 b15 b13[1] b4[0] b4[1][1][0]"/>
    </vehicle>

    <vehicle id="16" depart="411.00" arrival="704.00">
        <route edges="a36 a40 a153 a87[0] a20001+87[1][0] a87[1][1] am90 am91 a88 a187 a191 a17 a71 b38[0] b38[0]a b37 b26 b26.-170 b15 b13[1] b4[0] b4[1][1][0]"/>
    </vehicle>

    <vehicle id="12" depart="368.00" arrival="750.00">
        <route edges="a161 a122 a1b a1 a204a[0] a124 b12 b50[0] b50[1] b50[1]a a181 a18 a17 a71 b2[0] b2[1][0] b2[1][1][0] b2[1][1][1] b2[1][1][1]b"/>
    </vehicle>

    <vehicle id="15" depart="399.00" arrival="753.00">
        <route edges="a161 a122 a1b a1 a204a[0] a124 b12 b50[0] b50[1] b50[1]a a181 a18 a17 a71 b2[0] b2[1][0] b2[1][1][0] b2[1][1][1] b2[1][1][1]b"/>
    </vehicle>

    <vehicle id="17" depart="451.00" arrival="804.00">
        <route edges="a36 a40 a153 a87[0] a20001+87[1][0] a87[1][1] am90 am91 a88 a187 a191 a17 a71 b38[0] b38[0]a b37 b26 b26.-170 b15 b13[1] b4[0] b4[1][1][0]"/>
    </vehicle>

    <vehicle id="18" depart="480.00" arrival="807.00">
        <route edges="a36 a40 a153 a87[0] a20001+87[1][0] a87[1][1] am90 am91 a88 a187 a191 a17 a71 b38[0] b38[0]a b37 b26 b26.-170 b15 b13[1] b4[0] b4[1][1][0]"/>
    </vehicle>

    <vehicle id="19" depart="564.00" arrival="911.00">
        <route edges="a36 a40 a153 a87[0] a20001+87[1][0] a87[1][1] am90 am91 a88 a187 a191 a17 a71 b38[0] b38[0]a b37 b26 b26.-170 b15 b13[1] b4[0] b4[1][1][0]"/>
    </vehicle>

    <vehicle id="20" depart="590.00" arrival="921.00">
        <route edges="a36 a40 a153 a87[0] a20001+87[1][0] a87[1][1] am90 am91 a88 a187 a191 a17 a71 b38[0] b38[0]a b37 b26 b26.-170 b15 b13[1] b4[0] b4[1][1][0]"/>
    </vehicle>

    <vehicle id="21" depart="651.00" arrival="981.00">
        <route edges="a161 a122 a1b a1 a204a[0] a124 b12 b50[0] b50[1] b50[1]a a181 a18 a17 a71 b2[0] b2[1][0] b2[1][1][0] b2[1][1][1] b2[1][1][1]b"/>
    </vehicle>

    <vehicle id="24" depart="821.00" arrival="1133.00">
        <route edges="a161 a122 a1b a1 a204a[0] a124 b12 b50[0] b50[1] b50[1]a a181 a18 a17 a71 b2[0] b2[1][0] b2[1][1][0] b2[1][1][1] b2[1][1][1]b"/>
    </vehicle>

    <vehicle id="22" depart="796.00" arrival="1170.00">
        <route edges="a36 a40 a153 a87[0] a20001+87[1][0] a87[1][1] am90 am91 a88 a187 a191 a17 a71 b38[0] b38[0]a b37 b26 b26.-170 b15 b13[1] b4[0] b4[1][1][0]"/>
    </vehicle>

    <vehicle id="23" depart="818.00" arrival="1177.00">
        <route edges="a36 a40 a153 a87[0] a20001+87[1][0] a87[1][1] am90 am91 a88 a187 a191 a17 a71 b38[0] b38[0]a b37 b26 b26.-170 b15 b13[1] b4[0] b4[1][1][0]"/>
    </vehicle>

    <vehicle id="29" depart="939.00" arrival="1230.00">
        <route edges="a161 a122 a1b a1 a204a[0] a124 b12 b50[0] b50[1] b50[1]a a181 a18 a17 a71 b2[0] b2[1][0] b2[1][1][0] b2[1][1][1] b2[1][1][1]b"/>
    </vehicle>

    <vehicle id="25" depart="877.00" arrival="1237.00">
        <route edges="a161 a122 a1b a1 a204a[0] a124 b12 b50[0] b50[1] b50[1]a a181 a18 a17 a71 b2[0] b2[1][0] b2[1][1][0] b2[1][1][1] b2[1][1][1]b"/>
    </vehicle>

    <vehicle id="26" depart="912.00" arrival="1299.00">
        <route edges="a36 a40 a153 a87[0] a20001+87[1][0] a87[1][1] am90 am91 a88 a187 a191 a17 a71 b38[0] b38[0]a b37 b26 b26.-170 b15 b13[1] b4[0] b4[1][1][0]"/>
    </vehicle>

    <vehicle id="27" depart="920.00" arrival="1300.00">
        <route edges="a36 a40 a153 a87[0] a20001+87[1][0] a87[1][1] am90 am91 a88 a187 a191 a17 a71 b38[0] b38[0]a b37 b26 b26.-170 b15 b13[1] b4[0] b4[1][1][0]"/>
    </vehicle>

    <vehicle id="28" depart="931.00" arrival="1301.00">
        <route edges="a36 a40 a153 a87[0] a20001+87[1][0] a87[1][1] am90 am91 a88 a187 a191 a17 a71 b38[0] b38[0]a b37 b26 b26.-170 b15 b13[1] b4[0] b4[1][1][0]"/>
    </vehicle>

    <vehicle id="30" depart="970.00" arrival="1302.00">
        <route edges="a36 a40 a153 a87[0] a20001+87[1][0] a87[1][1] am90 am91 a88 a187 a191 a17 a71 b38[0] b38[0]a b37 b26 b26.-170 b15 b13[1] b4[0] b4[1][1][0]"/>
    </vehicle>

    <vehicle id="31" depart="986.00" arrival="1303.00">
        <route edges="a36 a40 a153 a87[0] a20001+87[1][0] a87[1][1] am90 am91 a88 a187 a191 a17 a71 b38[0] b38[0]a b37 b26 b26.-170 b15 b13[1] b4[0] b4[1][1][0]"/>
    </vehicle>

    <vehicle id="33" depart="1141.00" arrival="1412.00">
        <route edges="a36 a40 a153 a87[0] a20001+87[1][0] a87[1][1] am90 am91 a88 a187 a191 a17 a71 b38[0] b38[0]a b37 b26 b26.-170 b15 b13[1] b4[0] b4[1][1][0]"/>
    </vehicle>

    <vehicle id="32" depart="1006.00" arrival="1414.00">
        <route edges="a36 a40 a153 a87[0] a20001+87[1][0] a87[1][1] am90 am91 a88 a187 a191 a17 a71 b38[0] b38[0]a b37 b26 b26.-170 b15 b13[1] b4[0] b4[1][1][0]"/>
    </vehicle>

    <vehicle id="34" depart="1153.00" arrival="1420.00">
        <route edges="a36 a40 a153 a87[0] a20001+87[1][0] a87[1][1] am90 am91 a88 a187 a191 a17 a71 b38[0] b38[0]a b37 b26 b26.-170 b15 b13[1] b4[0] b4[1][1][0]"/>
    </vehicle>

    <vehicle id="35" depart="1160.00" arrival="1421.00">
        <route edges="a36 a40 a153 a87[0] a20001+87[1][0] a87[1][1] am90 am91 a88 a187 a191 a17 a71 b38[0] b38[0]a b37 b26 b26.-170 b15 b13[1] b4[0] b4[1][1][0]"/>
    </vehicle>

    <vehicle id="36" depart="1278.00" arrival="1544.00">
        <route edges="a36 a40 a153 a87[0] a20001+87[1][0] a87[1][1] am90 am91 a88 a187 a191 a17 a71 b38[0] b38[0]a b37 b26 b26.-170 b15 b13[1] b4[0] b4[1][1][0]"/>
    </vehicle>

    <vehicle id="37" depart="1354.00" arrival="1648.00">
        <route edges="a36 a40 a153 a87[0] a20001+87[1][0] a87[1][1] am90 am91 a88 a187 a191 a17 a71 b38[0] b38[0]a b37 b26 b26.-170 b15 b13[1] b4[0] b4[1][1][0]"/>
    </vehicle>

    <vehicle id="38" depart="1391.00" arrival="1652.00">
        <route edges="a36 a40 a153 a87[0] a20001+87[1][0] a87[1][1] am90 am91 a88 a187 a191 a17 a71 b38[0] b38[0]a b37 b26 b26.-170 b15 b13[1] b4[0] b4[1][1][0]"/>
    </vehicle>

    <vehicle id="42" depart="1484.00" arrival="1715.00">
        <route edges="a161 a122 a1b a1 a204a[0] a124 b12 b50[0] b50[1] b50[1]a a181 a18 a17 a71 b2[0] b2[1][0] b2[1][1][0] b2[1][1][1] b2[1][1][1]b"/>
    </vehicle>

    <vehicle id="40" depart="1400.00" arrival="1717.00">
        <route edges="a161 a122 a1b a1 a204a[0] a124 b12 b50[0] b50[1] b50[1]a a181 a18 a17 a71 b2[0] b2[1][0] b2[1][1][0] b2[1][1][1] b2[1][1][1]b"/>
    </vehicle>

    <vehicle id="39" depart="1396.00" arrival="1729.00">
        <route edges="a161 a122 a1b a1 a204a[0] a124 b12 b50[0] b50[1] b50[1]a a181 a18 a17 a71 b2[0] b2[1][0] b2[1][1][0] b2[1][1][1] b2[1][1][1]b"/>
    </vehicle>

    <vehicle id="41" depart="1413.00" arrival="1788.00">
        <route edges="a36 a40 a153 a87[0] a20001+87[1][0] a87[1][1] am90 am91 a88 a187 a191 a17 a71 b38[0] b38[0]a b37 b26 b26.-170 b15 b13[1] b4[0] b4[1][1][0]"/>
    </vehicle>

    <vehicle id="44" depart="1596.00" arrival="1837.00">
        <route edges="a161 a122 a1b a1 a204a[0] a124 b12 b50[0] b50[1] b50[1]a a181 a18 a17 a71 b2[0] b2[1][0] b2[1][1][0] b2[1][1][1] b2[1][1][1]b"/>
    </vehicle>

    <vehicle id="43" depart="1528.00" arrival="1903.00">
        <route edges="a36 a40 a153 a87[0] a20001+87[1][0] a87[1][1] am90 am91 a88 a187 a191 a17 a71 b38[0] b38[0]a b37 b26 b26.-170 b15 b13[1] b4[0] b4[1][1][0]"/>
    </vehicle>

    <vehicle id="45" depart="1621.00" arrival="2023.00">
        <route edges="a36 a40 a153 a87[0] a20001+87[1][0] a87[1][1] am90 am91 a88 a187 a191 a17 a71 b38[0] b38[0]a b37 b26 b26.-170 b15 b13[1] b4[0] b4[1][1][0]"/>
    </vehicle>

    <vehicle id="46" depart="1624.00" arrival="2029.00">
        <route edges="a36 a40 a153 a87[0] a20001+87[1][0] a87[1][1] am90 am91 a88 a187 a191 a17 a71 b38[0] b38[0]a b37 b26 b26.-170 b15 b13[1] b4[0] b4[1][1][0]"/>
    </vehicle>

    <vehicle id="47" depart="1664.00" arrival="2039.00">
        <route edges="a36 a40 a153 a87[0] a20001+87[1][0] a87[1][1] am90 am91 a88 a187 a191 a17 a71 b38[0] b38[0]a b37 b26 b26.-170 b15 b13[1] b4[0] b4[1][1][0]"/>
    </vehicle>

    <vehicle id="50" depart="1750.00" arrival="2045.00">
        <route edges="a36 a40 a153 a87[0] a20001+87[1][0] a87[1][1] am90 am91 a88 a187 a191 a17 a71 b38[0] b38[0]a b37 b26 b26.-170 b15 b13[1] b4[0] b4[1][1][0]"/>
    </vehicle>

    <vehicle id="51" depart="1784.00" arrival="2091.00">
        <route edges="a161 a122 a1b a1 a204a[0] a124 b12 b50[0] b50[1] b50[1]a a181 a18 a17 a71 b2[0] b2[1][0] b2[1][1][0] b2[1][1][1] b2[1][1][1]b"/>
    </vehicle>

    <vehicle id="52" depart="1787.00" arrival="2093.00">
        <route edges="a161 a122 a1b a1 a204a[0] a124 b12 b50[0] b50[1] b50[1]a a181 a18 a17 a71 b2[0] b2[1][0] b2[1][1][0] b2[1][1][1] b2[1][1][1]b"/>
    </vehicle>

    <vehicle id="48" depart="1708.00" arrival="2100.00">
        <route edges="a161 a122 a1b a1 a204a[0] a124 b12 b50[0] b50[1] b50[1]a a181 a18 a17 a71 b2[0] b2[1][0] b2[1][1][0] b2[1][1][1] b2[1][1][1]b"/>
    </vehicle>

    <vehicle id="49" depart="1722.00" arrival="2101.00">
        <route edges="a161 a122 a1b a1 a204a[0] a124 b12 b50[0] b50[1] b50[1]a a181 a18 a17 a71 b2[0] b2[1][0] b2[1][1][0] b2[1][1][1] b2[1][1][1]b"/>
    </vehicle>

    <vehicle id="53" depart="1831.00" arrival="2146.00">
        <route edges="a36 a40 a153 a87[0] a20001+87[1][0] a87[1][1] am90 am91 a88 a187 a191 a17 a71 b38[0] b38[0]a b37 b26 b26.-170 b15 b13[1] b4[0] b4[1][1][0]"/>
    </vehicle>

    <vehicle id="54" depart="1853.00" arrival="2150.00">
        <route edges="a36 a40 a153 a87[0] a20001+87[1][0] a87[1][1] am90 am91 a88 a187 a191 a17 a71 b38[0] b38[0]a b37 b26 b26.-170 b15 b13[1] b4[0] b4[1][1][0]"/>
    </vehicle>

    <vehicle id="55" depart="1875.00" arrival="2155.00">
        <route edges="a36 a40 a153 a87[0] a20001+87[1][0] a87[1][1] am90 am91 a88 a187 a191 a17 a71 b38[0] b38[0]a b37 b26 b26.-170 b15 b13[1] b4[0] b4[1][1][0]"/>
    </vehicle>

    <vehicle id="56" depart="1959.00" arrival="2230.00">
        <route edges="a161 a122 a1b a1 a204a[0] a124 b12 b50[0] b50[1] b50[1]a a181 a18 a17 a71 b2[0] b2[1][0] b2[1][1][0] b2[1][1][1] b2[1][1][1]b"/>
    </vehicle>

    <vehicle id="58" depart="1981.00" arrival="2272.00">
        <route edges="a36 a40 a153 a87[0] a20001+87[1][0] a87[1][1] am90 am91 a88 a187 a191 a17 a71 b38[0] b38[0]a b37 b26 b26.-170 b15 b13[1] b4[0] b4[1][1][0]"/>
    </vehicle>

    <vehicle id="57" depart="1979.00" arrival="2349.00">
        <route edges="a161 a122 a1b a1 a204a[0] a124 b12 b50[0] b50[1] b50[1]a a181 a18 a17 a71 b2[0] b2[1][0] b2[1][1][0] b2[1][1][1] b2[1][1][1]b"/>
    </vehicle>

    <vehicle id="59" depart="2009.00" arrival="2353.00">
        <route edges="a161 a122 a1b a1 a204a[0] a124 b12 b50[0] b50[1] b50[1]a a181 a18 a17 a71 b2[0] b2[1][0] b2[1][1][0] b2[1][1][1] b2[1][1][1]b"/>
    </vehicle>

    <vehicle id="60" depart="2155.00" arrival="2475.00">
        <route edges="a161 a122 a1b a1 a204a[0] a124 b12 b50[0] b50[1] b50[1]a a181 a18 a17 a71 b2[0] b2[1][0] b2[1][1][0] b2[1][1][1] b2[1][1][1]b"/>
    </vehicle>

    <vehicle id="61" depart="2211.00" arrival="2512.00">
        <route edges="a36 a40 a153 a87[0] a20001+87[1][0] a87[1][1] am90 am91 a88 a187 a191 a17 a71 b38[0] b38[0]a b37 b26 b26.-170 b15 b13[1] b4[0] b4[1][1][0]"/>
    </vehicle>

    <vehicle id="62" depart="2220.00" arrival="2520.00">
        <route edges="a36 a40 a153 a87[0] a20001+87[1][0] a87[1][1] am90 am91 a88 a187 a191 a17 a71 b38[0] b38[0]a b37 b26 b26.-170 b15 b13[1] b4[0] b4[1][1][0]"/>
    </vehicle>

    <vehicle id="63" depart="2290.00" arrival="2645.00">
        <route edges="a36 a40 a153 a87[0] a20001+87[1][0] a87[1][1] am90 am91 a88 a187 a191 a17 a71 b38[0] b38[0]a b37 b26 b26.-170 b15 b13[1] b4[0] b4[1][1][0]"/>
    </vehicle>

    <vehicle id="64" depart="2347.00" arrival="2708.00">
        <route edges="a161 a122 a1b a1 a204a[0] a124 b12 b50[0] b50[1] b50[1]a a181 a18 a17 a71 b2[0] b2[1][0] b2[1][1][0] b2[1][1][1] b2[1][1][1]b"/>
    </vehicle>

    <vehicle id="66" depart="2373.00" arrival="2711.00">
        <route edges="a161 a122 a1b a1 a204a[0] a124 b12 b50[0] b50[1] b50[1]a a181 a18 a17 a71 b2[0] b2[1][0] b2[1][1][0] b2[1][1][1] b2[1][1][1]b"/>
    </vehicle>

    <vehicle id="65" depart="2372.00" arrival="2778.00">
        <route edges="a36 a40 a153 a87[0] a20001+87[1][0] a87[1][1] am90 am91 a88 a187 a191 a17 a71 b38[0] b38[0]a b37 b26 b26.-170 b15 b13[1] b4[0] b4[1][1][0]"/>
    </vehicle>

    <vehicle id="68" depart="2418.00" arrival="2778.00">
        <route edges="a36 a40 a153 a87[0] a20001+87[1][0] a87[1][1] am90 am91 a88 a187 a191 a17 a71 b38[0] b38[0]a b37 b26 b26.-170 b15 b13[1] b4[0] b4[1][1][0]"/>
    </vehicle>

    <vehicle id="69" depart="2434.00" arrival="2781.00">
        <route edges="a36 a40 a153 a87[0] a20001+87[1][0] a87[1][1] am90 am91 a88 a187 a191 a17 a71 b38[0] b38[0]a b37 b26 b26.-170 b15 b13[1] b4[0] b4[1][1][0]"/>
    </vehicle>

    <vehicle id="67" depart="2403.00" arrival="2782.00">
        <route edges="a36 a40 a153 a87[0] a20001+87[1][0] a87[1][1] am90 am91 a88 a187 a191 a17 a71 b38[0] b38[0]a b37 b26 b26.-170 b15 b13[1] b4[0] b4[1][1][0]"/>
    </vehicle>

    <vehicle id="70" depart="2687.00" arrival="2953.00">
        <route edges="a161 a122 a1b a1 a204a[0] a124 b12 b50[0] b50[1] b50[1]a a181 a18 a17 a71 b2[0] b2[1][0] b2[1][1][0] b2[1][1][1] b2[1][1][1]b"/>
    </vehicle>

    <vehicle id="72" depart="2712.00" arrival="2963.00">
        <route edges="a161 a122 a1b a1 a204a[0] a124 b12 b50[0] b50[1] b50[1]a a181 a18 a17 a71 b2[0] b2[1][0] b2[1][1][0] b2[1][1][1] b2[1][1][1]b"/>
    </vehicle>

    <vehicle id="71" depart="2694.00" arrival="3016.00">
        <route edges="a36 a40 a153 a87[0] a20001+87[1][0] a87[1][1] am90 am91 a88 a187 a191 a17 a71 b38[0] b38[0]a b37 b26 b26.-170 b15 b13[1] b4[0] b4[1][1][0]"/>
    </vehicle>

    <vehicle id="73" depart="2813.00" arrival="3081.00">
        <route edges="a161 a122 a1b a1 a204a[0] a124 b12 b50[0] b50[1] b50[1]a a181 a18 a17 a71 b2[0] b2[1][0] b2[1][1][0] b2[1][1][1] b2[1][1][1]b"/>
    </vehicle>

    <vehicle id="74" depart="2817.00" arrival="3083.00">
        <route edges="a161 a122 a1b a1 a204a[0] a124 b12 b50[0] b50[1] b50[1]a a181 a18 a17 a71 b2[0] b2[1][0] b2[1][1][0] b2[1][1][1] b2[1][1][1]b"/>
    </vehicle>

    <vehicle id="75" depart="2822.00" arrival="3139.00">
        <route edges="a36 a40 a153 a87[0] a20001+87[1][0] a87[1][1] am90 am91 a88 a187 a191 a17 a71 b38[0] b38[0]a b37 b26 b26.-170 b15 b13[1] b4[0] b4[1][1][0]"/>
    </vehicle>

    <vehicle id="76" depart="2888.00" arrival="3206.00">
        <route edges="a161 a122 a1b a1 a204a[0] a124 b12 b50[0] b50[1] b50[1]a a181 a18 a17 a71 b2[0] b2[1][0] b2[1][1][0] b2[1][1][1] b2[1][1][1]b"/>
    </vehicle>

    <vehicle id="78" depart="2919.00" arrival="3207.00">
        <route edges="a161 a122 a1b a1 a204a[0] a124 b12 b50[0] b50[1] b50[1]a a181 a18 a17 a71 b2[0] b2[1][0] b2[1][1][0] b2[1][1][1] b2[1][1][1]b"/>
    </vehicle>

    <vehicle id="77" depart="2912.00" arrival="3261.00">
        <route edges="a36 a40 a153 a87[0] a20001+87[1][0] a87[1][1] am90 am91 a88 a187 a191 a17 a71 b38[0] b38[0]a b37 b26 b26.-170 b15 b13[1] b4[0] b4[1][1][0]"/>
    </vehicle>

    <vehicle id="79" depart="2971.00" arrival="3375.00">
        <route edges="a36 a40 a153 a87[0] a20001+87[1][0] a87[1][1] am90 am91 a88 a187 a191 a17 a71 b38[0] b38[0]a b37 b26 b26.-170 b15 b13[1] b4[0] b4[1][1][0]"/>
    </vehicle>

    <vehicle id="80" depart="2990.00" arrival="3380.00">
        <route edges="a36 a40 a153 a87[0] a20001+87[1][0] a87[1][1] am90 am91 a88 a187 a191 a17 a71 b38[0] b38[0]a b37 b26 b26.-170 b15 b13[1] b4[0] b4[1][1][0]"/>
    </vehicle>

    <vehicle id="81" depart="3095.00" arrival="3441.00">
        <route edges="a161 a122 a1b a1 a204a[0] a124 b12 b50[0] b50[1] b50[1]a a181 a18 a17 a71 b2[0] b2[1][0] b2[1][1][0] b2[1][1][1] b2[1][1][1]b"/>
    </vehicle>

    <vehicle id="82" depart="3166.00" arrival="3505.00">
        <route edges="a36 a40 a153 a87[0] a20001+87[1][0] a87[1][1] am90 am91 a88 a187 a191 a17 a71 b38[0] b38[0]a b37 b26 b26.-170 b15 b13[1] b4[0] b4[1][1][0]"/>
    </vehicle>

    <vehicle id="83" depart="3177.00" arrival="3509.00">
        <route edges="a36 a40 a153 a87[0] a20001+87[1][0] a87[1][1] am90 am91 a88 a187 a191 a17 a71 b38[0] b38[0]a b37 b26 b26.-170 b15 b13[1] b4[0] b4[1][1][0]"/>
    </vehicle>

    <vehicle id="84" depart="3202.00" arrival="3555.00">
        <route edges="a161 a122 a1b a1 a204a[0] a124 b12 b50[0] b50[1] b50[1]a a181 a18 a17 a71 b2[0] b2[1][0] b2[1][1][0] b2[1][1][1] b2[1][1][1]b"/>
    </vehicle>

    <vehicle id="85" depart="3225.00" arrival="3565.00">
        <route edges="a161 a122 a1b a1 a204a[0] a124 b12 b50[0] b50[1] b50[1]a a181 a18 a17 a71 b2[0] b2[1][0] b2[1][1][0] b2[1][1][1] b2[1][1][1]b"/>
    </vehicle>

    <vehicle id="86" depart="3237.00" arrival="3628.00">
        <route edges="a36 a40 a153 a87[0] a20001+87[1][0] a87[1][1] am90 am91 a88 a187 a191 a17 a71 b38[0] b38[0]a b37 b26 b26.-170 b15 b13[1] b4[0] b4[1][1][0]"/>
    </vehicle>

    <vehicle id="87" depart="3314.00" arrival="3684.00">
        <route edges="a161 a122 a1b a1 a204a[0] a124 b12 b50[0] b50[1] b50[1]a a181 a18 a17 a71 b2[0] b2[1][0] b2[1][1][0] b2[1][1][1] b2[1][1][1]b"/>
    </vehicle>

    <vehicle id="89" depart="3350.00" arrival="3684.00">
        <route edges="a161 a122 a1b a1 a204a[0] a124 b12 b50[0] b50[1] b50[1]a a181 a18 a17 a71 b2[0] b2[1][0] b2[1][1][0] b2[1][1][1] b2[1][1][1]b"/>
    </vehicle>

    <vehicle id="88" depart="3342.00" arrival="3688.00">
        <route edges="a161 a122 a1b a1 a204a[0] a124 b12 b50[0] b50[1] b50[1]a a181 a18 a17 a71 b2[0] b2[1][0] b2[1][1][0] b2[1][1][1] b2[1][1][1]b"/>
    </vehicle>

    <vehicle id="91" depart="3395.00" arrival="3762.00">
        <route edges="a36 a40 a153 a87[0] a20001+87[1][0] a87[1][1] am90 am91 a88 a187 a191 a17 a71 b38[0] b38[0]a b37 b26 b26.-170 b15 b13[1] b4[0] b4[1][1][0]"/>
    </vehicle>

    <vehicle id="94" depart="3495.00" arrival="3769.00">
        <route edges="a36 a40 a153 a87[0] a20001+87[1][0] a87[1][1] am90 am91 a88 a187 a191 a17 a71 b38[0] b38[0]a b37 b26 b26.-170 b15 b13[1] b4[0] b4[1][1][0]"/>
    </vehicle>

    <vehicle id="92" depart="3443.00" arrival="3775.00">
        <route edges="a36 a40 a153 a87[0] a20001+87[1][0] a87[1][1] am90 am91 a88 a187 a191 a17 a71 b38[0] b38[0]a b37 b26 b26.-170 b15 b13[1] b4[0] b4[1][1][0]"/>
    </vehicle>

    <vehicle id="95" depart="3514.00" arrival="3813.00">
        <route edges="a161 a122 a1b a1 a204a[0] a124 b12 b50[0] b50[1] b50[1]a a181 a18 a17 a71 b2[0] b2[1][0] b2[1][1][0] b2[1][1][1] b2[1][1][1]b"/>
    </vehicle>

    <vehicle id="90" depart="3393.00" arrival="3815.00">
        <route edges="a161 a122 a1b a1 a204a[0] a124 b12 b50[0] b50[1] b50[1]a a181 a18 a17 a71 b2[0] b2[1][0] b2[1][1][0] b2[1][1][1] b2[1][1][1]b"/>
    </vehicle>

    <vehicle id="97" depart="3558.00" arrival="3821.00">
        <route edges="a161 a122 a1b a1 a204a[0] a124 b12 b50[0] b50[1] b50[1]a a181 a18 a17 a71 b2[0] b2[1][0] b2[1][1][0] b2[1][1][1] b2[1][1][1]b"/>
    </vehicle>

    <vehicle id="96" depart="3523.00" arrival="3881.00">
        <route edges="a36 a40 a153 a87[0] a20001+87[1][0] a87[1][1] am90 am91 a88 a187 a191 a17 a71 b38[0] b38[0]a b37 b26 b26.-170 b15 b13[1] b4[0] b4[1][1][0]"/>
    </vehicle>

    <vehicle id="93" depart="3456.00" arrival="3883.00">
        <route edges="a36 a40 a153 a87[0] a20001+87[1][0] a87[1][1] am90 am91 a88 a187 a191 a17 a71 b38[0] b38[0]a b37 b26 b26.-170 b15 b13[1] b4[0] b4[1][1][0]"/>
    </vehicle>

    <vehicle id="99" depart="3573.00" arrival="3883.00">
        <route edges="a36 a40 a153 a87[0] a20001+87[1][0] a87[1][1] am90 am91 a88 a187 a191 a17 a71 b38[0] b38[0]a b37 b26 b26.-170 b15 b13[1] b4[0] b4[1][1][0]"/>
    </vehicle>

    <vehicle id="98" depart="3570.00" arrival="3938.00">
        <route edges="a161 a122 a1b a1 a204a[0] a124 b12 b50[0] b50[1] b50[1]a a181 a18 a17 a71 b2[0] b2[1][0] b2[1][1][0] b2[1][1][1] b2[1][1][1]b"/>
    </vehicle>

</routes>
