<?xml version="1.0" encoding="UTF-8"?>

<!-- generated on 2025-03-21 17:58:20 by Eclipse SUMO sumo Version 1.21.0
<sumoConfiguration xmlns:xsi="http://www.w3.org/2001/XMLSchema-instance" xsi:noNamespaceSchemaLocation="http://sumo.dlr.de/xsd/sumoConfiguration.xsd">

    <input>
        <net-file value="${STATICPATH}/joined_lanes.net.xml"/>
        <route-files value="${SIMULATIONPATH}/generatedRoutes.rou.xml"/>
        <additional-files value="${STATICPATH}/detectors.add.xml,${STATICPATH}/joined_vtypes.add.xml,${STATICPATH}/joined_tls.add.xml"/>
    </input>

    <output>
        <fcd-output value="${SIMULATIONPATH}/fcd.xml"/>
        <queue-output value="${SIMULATIONPATH}/queue.xml"/>
        <summary-output value="${SIMULATIONPATH}/summary.xml"/>
        <tripinfo-output value="${SIMULATIONPATH}/tripinfos.xml"/>
        <vehroute-output value="${SIMULATIONPATH}/vehroute.xml"/>
        <save-state.prefix value="configs\state"/>
    </output>

    <processing>
        <ignore-junction-blocker value="1"/>
        <ignore-route-errors value="true"/>
        <time-to-teleport value="-1"/>
    </processing>

    <report>
        <log value="C:/Users/fabio/Desktop/sumo_log.txt"/>
        <no-step-log value="true"/>
    </report>

    <emissions>
        <phemlight-path value="configs\./PHEMlight/"/>
    </emissions>

    <traci_server>
        <remote-port value="60259"/>
    </traci_server>

</sumoConfiguration>
-->

<tripinfos xmlns:xsi="http://www.w3.org/2001/XMLSchema-instance" xsi:noNamespaceSchemaLocation="http://sumo.dlr.de/xsd/tripinfo_file.xsd">
    <tripinfo id="0" depart="2.00" departLane="a16_0" departPos="5.10" departSpeed="0.00" departDelay="0.80" arrival="348.00" arrivalLane="b3[1]b_0" arrivalPos="239.77" arrivalSpeed="13.43" duration="346.00" routeLength="3381.18" waitingTime="53.00" waitingCount="6" stopTime="0.00" timeLoss="112.30" rerouteNo="0" devices="vehroute_0 tripinfo_0 fcd_0" vType="DEFAULT_VEHTYPE" speedFactor="1.06" vaporized=""/>
    <tripinfo id="1" depart="64.00" departLane="a201c_0" departPos="5.10" departSpeed="0.00" departDelay="0.32" arrival="452.00" arrivalLane="a190_0" arrivalPos="221.75" arrivalSpeed="12.83" duration="388.00" routeLength="2784.72" waitingTime="131.00" waitingCount="3" stopTime="0.00" timeLoss="171.32" rerouteNo="0" devices="vehroute_1 tripinfo_1 fcd_1" vType="DEFAULT_VEHTYPE" speedFactor="0.94" vaporized=""/>
    <tripinfo id="2" depart="83.00" departLane="a201c_0" departPos="5.10" departSpeed="0.00" departDelay="0.58" arrival="454.00" arrivalLane="a190_0" arrivalPos="221.75" arrivalSpeed="13.14" duration="371.00" routeLength="2784.72" waitingTime="126.00" waitingCount="2" stopTime="0.00" timeLoss="168.94" rerouteNo="0" devices="vehroute_2 tripinfo_2 fcd_2" vType="DEFAULT_VEHTYPE" speedFactor="1.01" vaporized=""/>
    <tripinfo id="3" depart="269.00" departLane="a210_0" departPos="5.10" departSpeed="0.00" departDelay="0.33" arrival="510.00" arrivalLane="b4[1][1][1]_0" arrivalPos="171.54" arrivalSpeed="14.85" duration="241.00" routeLength="2767.14" waitingTime="20.00" waitingCount="3" stopTime="0.00" timeLoss="55.68" rerouteNo="0" devices="vehroute_3 tripinfo_3 fcd_3" vType="DEFAULT_VEHTYPE" speedFactor="1.08" vaporized=""/>
    <tripinfo id="4" depart="288.00" departLane="a16_0" departPos="5.10" departSpeed="0.00" departDelay="0.12" arrival="730.00" arrivalLane="b3[1]b_0" arrivalPos="239.77" arrivalSpeed="13.44" duration="442.00" routeLength="3381.18" waitingTime="147.00" waitingCount="5" stopTime="0.00" timeLoss="200.20" rerouteNo="0" devices="vehroute_4 tripinfo_4 fcd_4" vType="DEFAULT_VEHTYPE" speedFactor="1.03" vaporized=""/>
    <tripinfo id="6" depart="440.00" departLane="a201c_0" departPos="5.10" departSpeed="0.00" departDelay="0.67" arrival="806.00" arrivalLane="a190_0" arrivalPos="221.75" arrivalSpeed="13.31" duration="366.00" routeLength="2781.76" waitingTime="123.00" waitingCount="4" stopTime="0.00" timeLoss="170.75" rerouteNo="0" devices="vehroute_6 tripinfo_6 fcd_6" vType="DEFAULT_VEHTYPE" speedFactor="1.05" vaporized=""/>
    <tripinfo id="5" depart="439.00" departLane="a16_0" departPos="5.10" departSpeed="0.00" departDelay="0.66" arrival="886.00" arrivalLane="b3[1]b_0" arrivalPos="239.77" arrivalSpeed="10.81" duration="447.00" routeLength="3381.18" waitingTime="87.00" waitingCount="6" stopTime="0.00" timeLoss="147.46" rerouteNo="0" devices="vehroute_5 tripinfo_5 fcd_5" vType="DEFAULT_VEHTYPE" speedFactor="0.83" vaporized=""/>
    <tripinfo id="12" depart="615.00" departLane="a201c_0" departPos="5.10" departSpeed="0.00" departDelay="0.61" arrival="918.00" arrivalLane="a190_0" arrivalPos="221.75" arrivalSpeed="13.99" duration="303.00" routeLength="2781.76" waitingTime="73.00" waitingCount="3" stopTime="0.00" timeLoss="108.98" rerouteNo="0" devices="vehroute_12 tripinfo_12 fcd_12" vType="DEFAULT_VEHTYPE" speedFactor="1.05" vaporized=""/>
    <tripinfo id="9" depart="509.00" departLane="a201c_0" departPos="5.10" departSpeed="0.00" departDelay="0.40" arrival="931.00" arrivalLane="a190_0" arrivalPos="221.75" arrivalSpeed="11.30" duration="422.00" routeLength="2784.72" waitingTime="139.00" waitingCount="3" stopTime="0.00" timeLoss="182.86" rerouteNo="0" devices="vehroute_9 tripinfo_9 fcd_9" vType="DEFAULT_VEHTYPE" speedFactor="0.86" vaporized=""/>
    <tripinfo id="14" depart="637.00" departLane="a201c_0" departPos="5.10" departSpeed="0.00" departDelay="0.21" arrival="932.00" arrivalLane="a190_0" arrivalPos="221.75" arrivalSpeed="12.14" duration="295.00" routeLength="2781.50" waitingTime="38.00" waitingCount="1" stopTime="0.00" timeLoss="89.54" rerouteNo="0" devices="vehroute_14 tripinfo_14 fcd_14" vType="DEFAULT_VEHTYPE" speedFactor="0.99" vaporized=""/>
    <tripinfo id="13" depart="626.00" departLane="a210_0" departPos="5.10" departSpeed="0.00" departDelay="0.49" arrival="986.00" arrivalLane="b4[1][1][1]_0" arrivalPos="171.54" arrivalSpeed="15.53" duration="360.00" routeLength="2764.18" waitingTime="132.00" waitingCount="4" stopTime="0.00" timeLoss="181.24" rerouteNo="0" devices="vehroute_13 tripinfo_13 fcd_13" vType="DEFAULT_VEHTYPE" speedFactor="1.12" vaporized=""/>
    <tripinfo id="11" depart="583.00" departLane="a210_0" departPos="5.10" departSpeed="0.00" departDelay="0.65" arrival="989.00" arrivalLane="b4[1][1][1]_0" arrivalPos="171.54" arrivalSpeed="13.96" duration="406.00" routeLength="2767.14" waitingTime="164.00" waitingCount="5" stopTime="0.00" timeLoss="210.88" rerouteNo="0" devices="vehroute_11 tripinfo_11 fcd_11" vType="DEFAULT_VEHTYPE" speedFactor="1.03" vaporized=""/>
    <tripinfo id="10" depart="554.00" departLane="a16_0" departPos="5.10" departSpeed="0.00" departDelay="0.35" arrival="1004.00" arrivalLane="b3[1]b_0" arrivalPos="239.77" arrivalSpeed="14.16" duration="450.00" routeLength="3381.18" waitingTime="124.00" waitingCount="6" stopTime="0.00" timeLoss="222.84" rerouteNo="0" devices="vehroute_10 tripinfo_10 fcd_10" vType="DEFAULT_VEHTYPE" speedFactor="1.09" vaporized=""/>
    <tripinfo id="8" depart="502.00" departLane="a16_0" departPos="5.10" departSpeed="0.00" departDelay="0.89" arrival="1008.00" arrivalLane="b3[1]b_0" arrivalPos="239.77" arrivalSpeed="12.11" duration="506.00" routeLength="3375.93" waitingTime="168.00" waitingCount="6" stopTime="0.00" timeLoss="241.29" rerouteNo="0" devices="vehroute_8 tripinfo_8 fcd_8" vType="DEFAULT_VEHTYPE" speedFactor="0.94" vaporized=""/>
    <tripinfo id="15" depart="640.00" departLane="a16_0" departPos="5.10" departSpeed="0.00" departDelay="0.04" arrival="1011.00" arrivalLane="b3[1]b_0" arrivalPos="239.77" arrivalSpeed="12.81" duration="371.00" routeLength="3375.93" waitingTime="45.00" waitingCount="4" stopTime="0.00" timeLoss="103.50" rerouteNo="0" devices="vehroute_15 tripinfo_15 fcd_15" vType="DEFAULT_VEHTYPE" speedFactor="0.93" vaporized=""/>
    <tripinfo id="7" depart="482.00" departLane="a16_0" departPos="5.10" departSpeed="0.00" departDelay="0.31" arrival="1014.00" arrivalLane="b3[1]b_0" arrivalPos="239.77" arrivalSpeed="11.84" duration="532.00" routeLength="3381.18" waitingTime="186.00" waitingCount="6" stopTime="0.00" timeLoss="251.03" rerouteNo="0" devices="vehroute_7 tripinfo_7 fcd_7" vType="DEFAULT_VEHTYPE" speedFactor="0.89" vaporized=""/>
    <tripinfo id="16" depart="683.00" departLane="a201c_0" departPos="5.10" departSpeed="0.00" departDelay="0.10" arrival="1093.00" arrivalLane="a190_0" arrivalPos="221.75" arrivalSpeed="11.37" duration="410.00" routeLength="2784.72" waitingTime="138.00" waitingCount="4" stopTime="0.00" timeLoss="176.83" rerouteNo="0" devices="vehroute_16 tripinfo_16 fcd_16" vType="DEFAULT_VEHTYPE" speedFactor="0.88" vaporized=""/>
    <tripinfo id="19" depart="764.00" departLane="a16_0" departPos="5.10" departSpeed="0.00" departDelay="0.86" arrival="1128.00" arrivalLane="b3[1]b_0" arrivalPos="239.77" arrivalSpeed="14.79" duration="364.00" routeLength="3381.18" waitingTime="87.00" waitingCount="6" stopTime="0.00" timeLoss="149.34" rerouteNo="0" devices="vehroute_19 tripinfo_19 fcd_19" vType="DEFAULT_VEHTYPE" speedFactor="1.16" vaporized=""/>
    <tripinfo id="17" depart="691.00" departLane="a201c_0" departPos="5.10" departSpeed="0.00" departDelay="0.58" arrival="1159.00" arrivalLane="a190_0" arrivalPos="221.75" arrivalSpeed="12.75" duration="468.00" routeLength="2781.76" waitingTime="204.00" waitingCount="3" stopTime="0.00" timeLoss="250.81" rerouteNo="0" devices="vehroute_17 tripinfo_17 fcd_17" vType="DEFAULT_VEHTYPE" speedFactor="0.94" vaporized=""/>
    <tripinfo id="18" depart="763.00" departLane="a201c_0" departPos="5.10" departSpeed="0.00" departDelay="0.68" arrival="1163.00" arrivalLane="a190_0" arrivalPos="221.75" arrivalSpeed="12.85" duration="400.00" routeLength="2784.72" waitingTime="133.00" waitingCount="3" stopTime="0.00" timeLoss="180.92" rerouteNo="0" devices="vehroute_18 tripinfo_18 fcd_18" vType="DEFAULT_VEHTYPE" speedFactor="0.94" vaporized=""/>
    <tripinfo id="20" depart="795.00" departLane="a201c_0" departPos="5.10" departSpeed="0.00" departDelay="0.11" arrival="1165.00" arrivalLane="a190_0" arrivalPos="221.75" arrivalSpeed="13.18" duration="370.00" routeLength="2781.50" waitingTime="124.00" waitingCount="2" stopTime="0.00" timeLoss="169.17" rerouteNo="0" devices="vehroute_20 tripinfo_20 fcd_20" vType="DEFAULT_VEHTYPE" speedFactor="1.02" vaporized=""/>
    <tripinfo id="21" depart="806.00" departLane="a201c_0" departPos="5.10" departSpeed="0.00" departDelay="0.99" arrival="1168.00" arrivalLane="a190_0" arrivalPos="221.75" arrivalSpeed="14.02" duration="362.00" routeLength="2784.72" waitingTime="110.00" waitingCount="3" stopTime="0.00" timeLoss="159.18" rerouteNo="0" devices="vehroute_21 tripinfo_21 fcd_21" vType="DEFAULT_VEHTYPE" speedFactor="1.01" vaporized=""/>
    <tripinfo id="22" depart="846.00" departLane="a201c_0" departPos="5.10" departSpeed="0.00" departDelay="21.98" arrival="1173.00" arrivalLane="a190_0" arrivalPos="221.75" arrivalSpeed="13.25" duration="327.00" routeLength="2778.54" waitingTime="72.00" waitingCount="2" stopTime="0.00" timeLoss="116.87" rerouteNo="0" devices="vehroute_22 tripinfo_22 fcd_22" vType="DEFAULT_VEHTYPE" speedFactor="0.97" vaporized=""/>
    <tripinfo id="29" depart="1007.00" departLane="a210_0" departPos="5.10" departSpeed="0.00" departDelay="0.07" arrival="1282.00" arrivalLane="b4[1][1][1]_0" arrivalPos="171.54" arrivalSpeed="11.79" duration="275.00" routeLength="2767.14" waitingTime="32.00" waitingCount="2" stopTime="0.00" timeLoss="59.99" rerouteNo="0" devices="vehroute_29 tripinfo_29 fcd_29" vType="DEFAULT_VEHTYPE" speedFactor="0.93" vaporized=""/>
    <tripinfo id="26" depart="895.00" departLane="a210_0" departPos="5.10" departSpeed="0.00" departDelay="0.11" arrival="1284.00" arrivalLane="b4[1][1][1]_0" arrivalPos="171.54" arrivalSpeed="12.60" duration="389.00" routeLength="2767.14" waitingTime="126.00" waitingCount="4" stopTime="0.00" timeLoss="170.66" rerouteNo="0" devices="vehroute_26 tripinfo_26 fcd_26" vType="DEFAULT_VEHTYPE" speedFactor="0.92" vaporized=""/>
    <tripinfo id="23" depart="848.00" departLane="a201c_0" departPos="5.10" departSpeed="0.00" departDelay="10.82" arrival="1287.00" arrivalLane="a190_0" arrivalPos="221.75" arrivalSpeed="11.98" duration="439.00" routeLength="2784.72" waitingTime="171.00" waitingCount="3" stopTime="0.00" timeLoss="208.45" rerouteNo="0" devices="vehroute_23 tripinfo_23 fcd_23" vType="DEFAULT_VEHTYPE" speedFactor="0.89" vaporized=""/>
    <tripinfo id="24" depart="850.00" departLane="a201c_0" departPos="5.10" departSpeed="0.00" departDelay="12.48" arrival="1299.00" arrivalLane="a190_0" arrivalPos="221.75" arrivalSpeed="10.62" duration="449.00" routeLength="2781.76" waitingTime="159.00" waitingCount="2" stopTime="0.00" timeLoss="202.18" rerouteNo="0" devices="vehroute_24 tripinfo_24 fcd_24" vType="DEFAULT_VEHTYPE" speedFactor="0.83" vaporized=""/>
    <tripinfo id="25" depart="861.00" departLane="a201c_0" departPos="5.10" departSpeed="0.00" departDelay="0.40" arrival="1301.00" arrivalLane="a190_0" arrivalPos="221.75" arrivalSpeed="10.96" duration="440.00" routeLength="2781.76" waitingTime="150.00" waitingCount="2" stopTime="0.00" timeLoss="204.83" rerouteNo="0" devices="vehroute_25 tripinfo_25 fcd_25" vType="DEFAULT_VEHTYPE" speedFactor="0.87" vaporized=""/>
    <tripinfo id="28" depart="1002.00" departLane="a201c_0" departPos="5.10" departSpeed="0.00" departDelay="2.09" arrival="1411.00" arrivalLane="a190_0" arrivalPos="221.75" arrivalSpeed="14.61" duration="409.00" routeLength="2781.76" waitingTime="182.00" waitingCount="4" stopTime="0.00" timeLoss="228.31" rerouteNo="0" devices="vehroute_28 tripinfo_28 fcd_28" vType="DEFAULT_VEHTYPE" speedFactor="1.13" vaporized=""/>
    <tripinfo id="30" depart="1071.00" departLane="a210_0" departPos="5.10" departSpeed="0.00" departDelay="0.52" arrival="1412.00" arrivalLane="b4[1][1][1]_0" arrivalPos="171.54" arrivalSpeed="15.47" duration="341.00" routeLength="2767.14" waitingTime="123.00" waitingCount="5" stopTime="0.00" timeLoss="170.96" rerouteNo="0" devices="vehroute_30 tripinfo_30 fcd_30" vType="DEFAULT_VEHTYPE" speedFactor="1.18" vaporized=""/>
    <tripinfo id="27" depart="956.00" departLane="a201c_0" departPos="5.10" departSpeed="0.00" departDelay="0.61" arrival="1420.00" arrivalLane="a190_0" arrivalPos="221.75" arrivalSpeed="12.89" duration="464.00" routeLength="2784.72" waitingTime="200.00" waitingCount="5" stopTime="0.00" timeLoss="248.58" rerouteNo="0" devices="vehroute_27 tripinfo_27 fcd_27" vType="DEFAULT_VEHTYPE" speedFactor="0.95" vaporized=""/>
    <tripinfo id="31" depart="1130.00" departLane="a201c_0" departPos="5.10" departSpeed="0.00" departDelay="0.58" arrival="1545.00" arrivalLane="a190_0" arrivalPos="221.75" arrivalSpeed="14.75" duration="415.00" routeLength="2781.76" waitingTime="188.00" waitingCount="5" stopTime="0.00" timeLoss="238.36" rerouteNo="0" devices="vehroute_31 tripinfo_31 fcd_31" vType="DEFAULT_VEHTYPE" speedFactor="1.15" vaporized=""/>
    <tripinfo id="32" depart="1159.00" departLane="a201c_0" departPos="5.10" departSpeed="0.00" departDelay="15.89" arrival="1553.00" arrivalLane="a190_0" arrivalPos="221.75" arrivalSpeed="13.69" duration="394.00" routeLength="2781.76" waitingTime="142.00" waitingCount="4" stopTime="0.00" timeLoss="191.19" rerouteNo="0" devices="vehroute_32 tripinfo_32 fcd_32" vType="DEFAULT_VEHTYPE" speedFactor="1.01" vaporized=""/>
    <tripinfo id="33" depart="1162.00" departLane="a201c_0" departPos="5.10" departSpeed="0.00" departDelay="0.90" arrival="1555.00" arrivalLane="a190_0" arrivalPos="221.75" arrivalSpeed="15.60" duration="393.00" routeLength="2778.54" waitingTime="137.00" waitingCount="3" stopTime="0.00" timeLoss="218.34" rerouteNo="0" devices="vehroute_33 tripinfo_33 fcd_33" vType="DEFAULT_VEHTYPE" speedFactor="1.17" vaporized=""/>
    <tripinfo id="34" depart="1165.00" departLane="a201c_0" departPos="5.10" departSpeed="0.00" departDelay="0.40" arrival="1560.00" arrivalLane="a190_0" arrivalPos="221.75" arrivalSpeed="12.53" duration="395.00" routeLength="2781.76" waitingTime="129.00" waitingCount="4" stopTime="0.00" timeLoss="189.34" rerouteNo="0" devices="vehroute_34 tripinfo_34 fcd_34" vType="DEFAULT_VEHTYPE" speedFactor="0.99" vaporized=""/>
    <tripinfo id="35" depart="1247.00" departLane="a210_0" departPos="5.10" departSpeed="0.00" departDelay="0.24" arrival="1572.00" arrivalLane="b4[1][1][1]_0" arrivalPos="171.54" arrivalSpeed="12.87" duration="325.00" routeLength="2767.14" waitingTime="91.00" waitingCount="4" stopTime="0.00" timeLoss="128.77" rerouteNo="0" devices="vehroute_35 tripinfo_35 fcd_35" vType="DEFAULT_VEHTYPE" speedFactor="1.02" vaporized=""/>
    <tripinfo id="36" depart="1276.00" departLane="a201c_0" departPos="5.10" departSpeed="0.00" departDelay="0.75" arrival="1646.00" arrivalLane="a190_0" arrivalPos="221.75" arrivalSpeed="12.88" duration="370.00" routeLength="2778.54" waitingTime="119.00" waitingCount="4" stopTime="0.00" timeLoss="160.75" rerouteNo="0" devices="vehroute_36 tripinfo_36 fcd_36" vType="DEFAULT_VEHTYPE" speedFactor="0.97" vaporized=""/>
    <tripinfo id="37" depart="1314.00" departLane="a201c_0" departPos="5.10" departSpeed="0.00" departDelay="0.73" arrival="1648.00" arrivalLane="a190_0" arrivalPos="221.75" arrivalSpeed="15.26" duration="334.00" routeLength="2781.76" waitingTime="83.00" waitingCount="3" stopTime="0.00" timeLoss="159.53" rerouteNo="0" devices="vehroute_37 tripinfo_37 fcd_37" vType="DEFAULT_VEHTYPE" speedFactor="1.18" vaporized=""/>
    <tripinfo id="39" depart="1394.00" departLane="a201c_0" departPos="5.10" departSpeed="0.00" departDelay="0.52" arrival="1659.00" arrivalLane="a190_0" arrivalPos="221.75" arrivalSpeed="11.37" duration="265.00" routeLength="2784.72" waitingTime="8.00" waitingCount="1" stopTime="0.00" timeLoss="37.74" rerouteNo="0" devices="vehroute_39 tripinfo_39 fcd_39" vType="DEFAULT_VEHTYPE" speedFactor="0.90" vaporized=""/>
    <tripinfo id="40" depart="1408.00" departLane="a201c_0" departPos="5.10" departSpeed="0.00" departDelay="0.25" arrival="1661.00" arrivalLane="a190_0" arrivalPos="221.75" arrivalSpeed="13.44" duration="253.00" routeLength="2784.72" waitingTime="7.00" waitingCount="1" stopTime="0.00" timeLoss="54.14" rerouteNo="0" devices="vehroute_40 tripinfo_40 fcd_40" vType="DEFAULT_VEHTYPE" speedFactor="1.03" vaporized=""/>
    <tripinfo id="41" depart="1430.00" departLane="a210_0" departPos="5.10" departSpeed="0.00" departDelay="0.16" arrival="1707.00" arrivalLane="b4[1][1][1]_0" arrivalPos="171.54" arrivalSpeed="12.62" duration="277.00" routeLength="2767.14" waitingTime="43.00" waitingCount="2" stopTime="0.00" timeLoss="67.08" rerouteNo="0" devices="vehroute_41 tripinfo_41 fcd_41" vType="DEFAULT_VEHTYPE" speedFactor="0.96" vaporized=""/>
    <tripinfo id="38" depart="1392.00" departLane="a16_0" departPos="5.10" departSpeed="0.00" departDelay="0.74" arrival="1724.00" arrivalLane="b3[1]b_0" arrivalPos="239.77" arrivalSpeed="14.86" duration="332.00" routeLength="3381.18" waitingTime="56.00" waitingCount="4" stopTime="0.00" timeLoss="106.39" rerouteNo="0" devices="vehroute_38 tripinfo_38 fcd_38" vType="DEFAULT_VEHTYPE" speedFactor="1.10" vaporized=""/>
    <tripinfo id="43" depart="1507.00" departLane="a201c_0" departPos="5.10" departSpeed="0.00" departDelay="0.11" arrival="1807.00" arrivalLane="a190_0" arrivalPos="221.75" arrivalSpeed="14.38" duration="300.00" routeLength="2781.76" waitingTime="70.00" waitingCount="2" stopTime="0.00" timeLoss="103.49" rerouteNo="0" devices="vehroute_43 tripinfo_43 fcd_43" vType="DEFAULT_VEHTYPE" speedFactor="1.04" vaporized=""/>
    <tripinfo id="44" depart="1550.00" departLane="a201c_0" departPos="5.10" departSpeed="0.00" departDelay="0.79" arrival="1811.00" arrivalLane="a190_0" arrivalPos="221.75" arrivalSpeed="13.20" duration="261.00" routeLength="2784.72" waitingTime="34.00" waitingCount="1" stopTime="0.00" timeLoss="64.48" rerouteNo="0" devices="vehroute_44 tripinfo_44 fcd_44" vType="DEFAULT_VEHTYPE" speedFactor="1.04" vaporized=""/>
    <tripinfo id="42" depart="1458.00" departLane="a16_0" departPos="5.10" departSpeed="0.00" departDelay="0.73" arrival="1939.00" arrivalLane="b3[1]b_0" arrivalPos="239.77" arrivalSpeed="15.12" duration="481.00" routeLength="3381.18" waitingTime="192.00" waitingCount="7" stopTime="0.00" timeLoss="253.87" rerouteNo="0" devices="vehroute_42 tripinfo_42 fcd_42" vType="DEFAULT_VEHTYPE" speedFactor="1.09" vaporized=""/>
    <tripinfo id="48" depart="1745.00" departLane="a201c_0" departPos="5.10" departSpeed="0.00" departDelay="0.43" arrival="2028.00" arrivalLane="a190_0" arrivalPos="221.75" arrivalSpeed="11.23" duration="283.00" routeLength="2784.72" waitingTime="19.00" waitingCount="1" stopTime="0.00" timeLoss="50.02" rerouteNo="0" devices="vehroute_48 tripinfo_48 fcd_48" vType="DEFAULT_VEHTYPE" speedFactor="0.88" vaporized=""/>
    <tripinfo id="45" depart="1722.00" departLane="a210_0" departPos="5.10" departSpeed="0.00" departDelay="0.36" arrival="2044.00" arrivalLane="b4[1][1][1]_0" arrivalPos="171.54" arrivalSpeed="14.37" duration="322.00" routeLength="2767.14" waitingTime="116.00" waitingCount="2" stopTime="0.00" timeLoss="137.44" rerouteNo="0" devices="vehroute_45 tripinfo_45 fcd_45" vType="DEFAULT_VEHTYPE" speedFactor="1.09" vaporized=""/>
    <tripinfo id="46" depart="1726.00" departLane="a210_0" departPos="5.10" departSpeed="0.00" departDelay="0.32" arrival="2060.00" arrivalLane="b4[1][1][1]_0" arrivalPos="171.54" arrivalSpeed="13.42" duration="334.00" routeLength="2764.18" waitingTime="106.00" waitingCount="2" stopTime="0.00" timeLoss="132.78" rerouteNo="0" devices="vehroute_46 tripinfo_46 fcd_46" vType="DEFAULT_VEHTYPE" speedFactor="1.00" vaporized=""/>
    <tripinfo id="47" depart="1734.00" departLane="a210_0" departPos="5.10" departSpeed="0.00" departDelay="0.11" arrival="2066.00" arrivalLane="b4[1][1][1]_0" arrivalPos="171.54" arrivalSpeed="12.39" duration="332.00" routeLength="2764.18" waitingTime="76.00" waitingCount="3" stopTime="0.00" timeLoss="109.37" rerouteNo="0" devices="vehroute_47 tripinfo_47 fcd_47" vType="DEFAULT_VEHTYPE" speedFactor="0.90" vaporized=""/>
    <tripinfo id="50" depart="1822.00" departLane="a210_0" departPos="5.10" departSpeed="0.00" departDelay="0.01" arrival="2104.00" arrivalLane="b4[1][1][1]_0" arrivalPos="171.54" arrivalSpeed="10.90" duration="282.00" routeLength="2767.14" waitingTime="23.00" waitingCount="1" stopTime="0.00" timeLoss="47.39" rerouteNo="0" devices="vehroute_50 tripinfo_50 fcd_50" vType="DEFAULT_VEHTYPE" speedFactor="0.85" vaporized=""/>
    <tripinfo id="51" depart="1836.00" departLane="a201c_0" departPos="5.10" departSpeed="0.00" departDelay="0.99" arrival="2133.00" arrivalLane="a190_0" arrivalPos="221.75" arrivalSpeed="15.50" duration="297.00" routeLength="2781.76" waitingTime="71.00" waitingCount="4" stopTime="0.00" timeLoss="122.43" rerouteNo="0" devices="vehroute_51 tripinfo_51 fcd_51" vType="DEFAULT_VEHTYPE" speedFactor="1.17" vaporized=""/>
    <tripinfo id="49" depart="1805.00" departLane="a201c_0" departPos="5.10" departSpeed="0.00" departDelay="0.85" arrival="2157.00" arrivalLane="a190_0" arrivalPos="221.75" arrivalSpeed="11.42" duration="352.00" routeLength="2784.72" waitingTime="74.00" waitingCount="3" stopTime="0.00" timeLoss="110.80" rerouteNo="0" devices="vehroute_49 tripinfo_49 fcd_49" vType="DEFAULT_VEHTYPE" speedFactor="0.85" vaporized=""/>
    <tripinfo id="52" depart="1892.00" departLane="a201c_0" departPos="5.10" departSpeed="0.00" departDelay="0.18" arrival="2158.00" arrivalLane="a190_0" arrivalPos="221.75" arrivalSpeed="13.12" duration="266.00" routeLength="2784.72" waitingTime="18.00" waitingCount="1" stopTime="0.00" timeLoss="65.46" rerouteNo="0" devices="vehroute_52 tripinfo_52 fcd_52" vType="DEFAULT_VEHTYPE" speedFactor="1.02" vaporized=""/>
    <tripinfo id="53" depart="1917.00" departLane="a201c_0" departPos="5.10" departSpeed="0.00" departDelay="0.07" arrival="2277.00" arrivalLane="a190_0" arrivalPos="221.75" arrivalSpeed="15.13" duration="360.00" routeLength="2784.72" waitingTime="136.00" waitingCount="3" stopTime="0.00" timeLoss="173.22" rerouteNo="0" devices="vehroute_53 tripinfo_53 fcd_53" vType="DEFAULT_VEHTYPE" speedFactor="1.10" vaporized=""/>
    <tripinfo id="54" depart="1944.00" departLane="a201c_0" departPos="5.10" departSpeed="0.00" departDelay="0.96" arrival="2303.00" arrivalLane="a190_0" arrivalPos="221.75" arrivalSpeed="13.65" duration="359.00" routeLength="2781.50" waitingTime="113.00" waitingCount="3" stopTime="0.00" timeLoss="156.21" rerouteNo="0" devices="vehroute_54 tripinfo_54 fcd_54" vType="DEFAULT_VEHTYPE" speedFactor="1.00" vaporized=""/>
    <tripinfo id="55" depart="2032.00" departLane="a201c_0" departPos="5.10" departSpeed="0.00" departDelay="0.01" arrival="2309.00" arrivalLane="a190_0" arrivalPos="221.75" arrivalSpeed="13.55" duration="277.00" routeLength="2784.72" waitingTime="35.00" waitingCount="1" stopTime="0.00" timeLoss="71.08" rerouteNo="0" devices="vehroute_55 tripinfo_55 fcd_55" vType="DEFAULT_VEHTYPE" speedFactor="1.00" vaporized=""/>
    <tripinfo id="59" depart="2071.00" departLane="a210_0" departPos="5.10" departSpeed="0.00" departDelay="0.41" arrival="2381.00" arrivalLane="b4[1][1][1]_0" arrivalPos="171.54" arrivalSpeed="12.74" duration="310.00" routeLength="2767.14" waitingTime="70.00" waitingCount="4" stopTime="0.00" timeLoss="103.25" rerouteNo="0" devices="vehroute_59 tripinfo_59 fcd_59" vType="DEFAULT_VEHTYPE" speedFactor="0.97" vaporized=""/>
    <tripinfo id="56" depart="2040.00" departLane="a201c_0" departPos="5.10" departSpeed="0.00" departDelay="0.33" arrival="2394.00" arrivalLane="a190_0" arrivalPos="221.75" arrivalSpeed="11.96" duration="354.00" routeLength="2784.72" waitingTime="93.00" waitingCount="2" stopTime="0.00" timeLoss="125.91" rerouteNo="0" devices="vehroute_56 tripinfo_56 fcd_56" vType="DEFAULT_VEHTYPE" speedFactor="0.90" vaporized=""/>
    <tripinfo id="57" depart="2063.00" departLane="a201c_0" departPos="5.10" departSpeed="0.00" departDelay="0.05" arrival="2395.00" arrivalLane="a190_0" arrivalPos="221.75" arrivalSpeed="14.25" duration="332.00" routeLength="2781.50" waitingTime="89.00" waitingCount="2" stopTime="0.00" timeLoss="152.69" rerouteNo="0" devices="vehroute_57 tripinfo_57 fcd_57" vType="DEFAULT_VEHTYPE" speedFactor="1.14" vaporized=""/>
    <tripinfo id="58" depart="2069.00" departLane="a201c_0" departPos="5.10" departSpeed="0.00" departDelay="0.49" arrival="2443.00" arrivalLane="a190_0" arrivalPos="221.75" arrivalSpeed="13.21" duration="374.00" routeLength="2784.72" waitingTime="117.00" waitingCount="3" stopTime="0.00" timeLoss="173.74" rerouteNo="0" devices="vehroute_58 tripinfo_58 fcd_58" vType="DEFAULT_VEHTYPE" speedFactor="1.02" vaporized=""/>
    <tripinfo id="60" depart="2096.00" departLane="a201c_0" departPos="5.10" departSpeed="0.00" departDelay="0.27" arrival="2444.00" arrivalLane="a190_0" arrivalPos="221.75" arrivalSpeed="14.24" duration="348.00" routeLength="2784.72" waitingTime="104.00" waitingCount="2" stopTime="0.00" timeLoss="159.94" rerouteNo="0" devices="vehroute_60 tripinfo_60 fcd_60" vType="DEFAULT_VEHTYPE" speedFactor="1.08" vaporized=""/>
    <tripinfo id="61" depart="2140.00" departLane="a210_0" departPos="5.10" departSpeed="0.00" departDelay="0.55" arrival="2505.00" arrivalLane="b14_0" arrivalPos="316.83" arrivalSpeed="14.34" duration="365.00" routeLength="3005.04" waitingTime="115.00" waitingCount="6" stopTime="0.00" timeLoss="168.85" rerouteNo="0" devices="vehroute_61 tripinfo_61 fcd_61" vType="DEFAULT_VEHTYPE" speedFactor="1.12" vaporized=""/>
    <tripinfo id="63" depart="2183.00" departLane="a201c_0" departPos="5.10" departSpeed="0.00" departDelay="0.06" arrival="2505.00" arrivalLane="a190_0" arrivalPos="221.75" arrivalSpeed="13.47" duration="322.00" routeLength="2784.72" waitingTime="87.00" waitingCount="1" stopTime="0.00" timeLoss="115.52" rerouteNo="0" devices="vehroute_63 tripinfo_63 fcd_63" vType="DEFAULT_VEHTYPE" speedFactor="0.99" vaporized=""/>
    <tripinfo id="64" depart="2225.00" departLane="a210_0" departPos="5.10" departSpeed="0.00" departDelay="0.01" arrival="2554.00" arrivalLane="b4[1][1][1]_0" arrivalPos="171.54" arrivalSpeed="12.08" duration="329.00" routeLength="2767.14" waitingTime="83.00" waitingCount="3" stopTime="0.00" timeLoss="115.91" rerouteNo="0" devices="vehroute_64 tripinfo_64 fcd_64" vType="DEFAULT_VEHTYPE" speedFactor="0.94" vaporized=""/>
    <tripinfo id="69" depart="2280.00" departLane="a210_0" departPos="5.10" departSpeed="0.00" departDelay="0.52" arrival="2556.00" arrivalLane="b4[1][1][1]_0" arrivalPos="171.54" arrivalSpeed="14.01" duration="276.00" routeLength="2767.14" waitingTime="50.00" waitingCount="3" stopTime="0.00" timeLoss="79.87" rerouteNo="0" devices="vehroute_69 tripinfo_69 fcd_69" vType="DEFAULT_VEHTYPE" speedFactor="1.02" vaporized=""/>
    <tripinfo id="62" depart="2170.00" departLane="a16_0" departPos="5.10" departSpeed="0.00" departDelay="0.81" arrival="2582.00" arrivalLane="b3[1]b_0" arrivalPos="239.77" arrivalSpeed="13.94" duration="412.00" routeLength="3381.18" waitingTime="120.00" waitingCount="4" stopTime="0.00" timeLoss="166.17" rerouteNo="0" devices="vehroute_62 tripinfo_62 fcd_62" vType="DEFAULT_VEHTYPE" speedFactor="1.02" vaporized=""/>
    <tripinfo id="66" depart="2232.00" departLane="a201c_0" departPos="5.10" departSpeed="0.00" departDelay="1.81" arrival="2639.00" arrivalLane="a190_0" arrivalPos="221.75" arrivalSpeed="11.43" duration="407.00" routeLength="2781.76" waitingTime="147.00" waitingCount="2" stopTime="0.00" timeLoss="181.16" rerouteNo="0" devices="vehroute_66 tripinfo_66 fcd_66" vType="DEFAULT_VEHTYPE" speedFactor="0.91" vaporized=""/>