<?xml version="1.0" encoding="UTF-8"?>

<!-- generated on 2025-03-21 17:58:20 by Eclipse SUMO sumo Version 1.21.0
<sumoConfiguration xmlns:xsi="http://www.w3.org/2001/XMLSchema-instance" xsi:noNamespaceSchemaLocation="http://sumo.dlr.de/xsd/sumoConfiguration.xsd">

    <input>
        <net-file value="${STATICPATH}/joined_lanes.net.xml"/>
        <route-files value="${SIMULATIONPATH}/generatedRoutes.rou.xml"/>
        <additional-files value="${STATICPATH}/detectors.add.xml,${STATICPATH}/joined_vtypes.add.xml,${STATICPATH}/joined_tls.add.xml"/>
    </input>

    <output>
        <fcd-output value="${SIMULATIONPATH}/fcd.xml"/>
        <queue-output value="${SIMULATIONPATH}/queue.xml"/>
        <summary-output value="${SIMULATIONPATH}/summary.xml"/>
        <tripinfo-output value="${SIMULATIONPATH}/tripinfos.xml"/>
        <vehroute-output value="${SIMULATIONPATH}/vehroute.xml"/>
        <save-state.prefix value="configs\state"/>
    </output>

    <processing>
        <ignore-junction-blocker value="1"/>
        <ignore-route-errors value="true"/>
        <time-to-teleport value="-1"/>
    </processing>

    <report>
        <log value="C:/Users/fabio/Desktop/sumo_log.txt"/>
        <no-step-log value="true"/>
    </report>

    <emissions>
        <phemlight-path value="configs\./PHEMlight/"/>
    </emissions>

    <traci_server>
        <remote-port value="60259"/>
    </traci_server>

</sumoConfiguration>
-->

<routes xmlns:xsi="http://www.w3.org/2001/XMLSchema-instance" xsi:noNamespaceSchemaLocation="http://sumo.dlr.de/xsd/routes_file.xsd">
    <vehicle id="0" depart="2.00" arrival="348.00">
        <route edges="a16 a37 a36 a40 a153 a87[0] a20001+87[1][0] a87[1][1] am90 am91 a88 a187 a191 a17 a71 b38[0] b38[0]a b38[1][0] b38[1][1] b38[1][1]a b56[1][0] b56[1][1] b5[1][0]+66 b5[1][1][1] b8 b3[1] b3[1]b"/>
    </vehicle>

    <vehicle id="1" depart="64.00" arrival="452.00">
        <route edges="a201c a204a[0] a124 b12 b50[0] b50[1] b50[1]a a181 a18 a17 a71 a67 a80 a127 a77[1][0] a77ab a77bc a77cd a53cd a53[0] a78[1][1] a189[0] a189[1][0]+20000 a189[1][1] a188 a87[0] a20001+87[1][0] a87[1][1] am90 am91 a88 a187 a190"/>
    </vehicle>

    <vehicle id="2" depart="83.00" arrival="454.00">
        <route edges="a201c a204a[0] a124 b12 b50[0] b50[1] b50[1]a a181 a18 a17 a71 a67 a80 a127 a77[1][0] a77ab a77bc a77cd a53cd a53[0] a78[1][1] a189[0] a189[1][0]+20000 a189[1][1] a188 a87[0] a20001+87[1][0] a87[1][1] am90 am91 a88 a187 a190"/>
    </vehicle>

    <vehicle id="3" depart="269.00" arrival="510.00">
        <route edges="a210 a43[0] a43[1] a201 a201c a204a[0] a124 b12 b56[0] b56[1][0] b56[1][1] b5[1][0]+66 b5[1][1][1] b8 b4[1][1][1]"/>
    </vehicle>

    <vehicle id="4" depart="288.00" arrival="730.00">
        <route edges="a16 a37 a36 a40 a153 a87[0] a20001+87[1][0] a87[1][1] am90 am91 a88 a187 a191 a17 a71 b38[0] b38[0]a b38[1][0] b38[1][1] b38[1][1]a b56[1][0] b56[1][1] b5[1][0]+66 b5[1][1][1] b8 b3[1] b3[1]b"/>
    </vehicle>

    <vehicle id="6" depart="440.00" arrival="806.00">
        <route edges="a201c a204a[0] a124 b12 b50[0] b50[1] b50[1]a a181 a18 a17 a71 a67 a80 a127 a77[1][0] a77ab a77bc a77cd a53cd a53[0] a78[1][1] a189[0] a189[1][0]+20000 a189[1][1] a188 a87[0] a20001+87[1][0] a87[1][1] am90 am91 a88 a187 a190"/>
    </vehicle>

    <vehicle id="5" depart="439.00" arrival="886.00">
        <route edges="a16 a37 a36 a40 a153 a87[0] a20001+87[1][0] a87[1][1] am90 am91 a88 a187 a191 a17 a71 b38[0] b38[0]a b38[1][0] b38[1][1] b38[1][1]a b56[1][0] b56[1][1] b5[1][0]+66 b5[1][1][1] b8 b3[1] b3[1]b"/>
    </vehicle>

    <vehicle id="12" depart="615.00" arrival="918.00">
        <route edges="a201c a204a[0] a124 b12 b50[0] b50[1] b50[1]a a181 a18 a17 a71 a67 a80 a127 a77[1][0] a77ab a77bc a77cd a53cd a53[0] a78[1][1] a189[0] a189[1][0]+20000 a189[1][1] a188 a87[0] a20001+87[1][0] a87[1][1] am90 am91 a88 a187 a190"/>
    </vehicle>

    <vehicle id="9" depart="509.00" arrival="931.00">
        <route edges="a201c a204a[0] a124 b12 b50[0] b50[1] b50[1]a a181 a18 a17 a71 a67 a80 a127 a77[1][0] a77ab a77bc a77cd a53cd a53[0] a78[1][1] a189[0] a189[1][0]+20000 a189[1][1] a188 a87[0] a20001+87[1][0] a87[1][1] am90 am91 a88 a187 a190"/>
    </vehicle>

    <vehicle id="14" depart="637.00" arrival="932.00">
        <route edges="a201c a204a[0] a124 b12 b50[0] b50[1] b50[1]a a181 a18 a17 a71 a67 a80 a127 a77[1][0] a77ab a77bc a77cd a53cd a53[0] a78[1][1] a189[0] a189[1][0]+20000 a189[1][1] a188 a87[0] a20001+87[1][0] a87[1][1] am90 am91 a88 a187 a190"/>
    </vehicle>

    <vehicle id="13" depart="626.00" arrival="986.00">
        <route edges="a210 a43[0] a43[1] a201 a201c a204a[0] a124 b12 b56[0] b56[1][0] b56[1][1] b5[1][0]+66 b5[1][1][1] b8 b4[1][1][1]"/>
    </vehicle>

    <vehicle id="11" depart="583.00" arrival="989.00">
        <route edges="a210 a43[0] a43[1] a201 a201c a204a[0] a124 b12 b56[0] b56[1][0] b56[1][1] b5[1][0]+66 b5[1][1][1] b8 b4[1][1][1]"/>
    </vehicle>

    <vehicle id="10" depart="554.00" arrival="1004.00">
        <route edges="a16 a37 a36 a40 a153 a87[0] a20001+87[1][0] a87[1][1] am90 am91 a88 a187 a191 a17 a71 b38[0] b38[0]a b38[1][0] b38[1][1] b38[1][1]a b56[1][0] b56[1][1] b5[1][0]+66 b5[1][1][1] b8 b3[1] b3[1]b"/>
    </vehicle>

    <vehicle id="8" depart="502.00" arrival="1008.00">
        <route edges="a16 a37 a36 a40 a153 a87[0] a20001+87[1][0] a87[1][1] am90 am91 a88 a187 a191 a17 a71 b38[0] b38[0]a b38[1][0] b38[1][1] b38[1][1]a b56[1][0] b56[1][1] b5[1][0]+66 b5[1][1][1] b8 b3[1] b3[1]b"/>
    </vehicle>

    <vehicle id="15" depart="640.00" arrival="1011.00">
        <route edges="a16 a37 a36 a40 a153 a87[0] a20001+87[1][0] a87[1][1] am90 am91 a88 a187 a191 a17 a71 b38[0] b38[0]a b38[1][0] b38[1][1] b38[1][1]a b56[1][0] b56[1][1] b5[1][0]+66 b5[1][1][1] b8 b3[1] b3[1]b"/>
    </vehicle>

    <vehicle id="7" depart="482.00" arrival="1014.00">
        <route edges="a16 a37 a36 a40 a153 a87[0] a20001+87[1][0] a87[1][1] am90 am91 a88 a187 a191 a17 a71 b38[0] b38[0]a b38[1][0] b38[1][1] b38[1][1]a b56[1][0] b56[1][1] b5[1][0]+66 b5[1][1][1] b8 b3[1] b3[1]b"/>
    </vehicle>

    <vehicle id="16" depart="683.00" arrival="1093.00">
        <route edges="a201c a204a[0] a124 b12 b50[0] b50[1] b50[1]a a181 a18 a17 a71 a67 a80 a127 a77[1][0] a77ab a77bc a77cd a53cd a53[0] a78[1][1] a189[0] a189[1][0]+20000 a189[1][1] a188 a87[0] a20001+87[1][0] a87[1][1] am90 am91 a88 a187 a190"/>
    </vehicle>

    <vehicle id="19" depart="764.00" arrival="1128.00">
        <route edges="a16 a37 a36 a40 a153 a87[0] a20001+87[1][0] a87[1][1] am90 am91 a88 a187 a191 a17 a71 b38[0] b38[0]a b38[1][0] b38[1][1] b38[1][1]a b56[1][0] b56[1][1] b5[1][0]+66 b5[1][1][1] b8 b3[1] b3[1]b"/>
    </vehicle>

    <vehicle id="17" depart="691.00" arrival="1159.00">
        <route edges="a201c a204a[0] a124 b12 b50[0] b50[1] b50[1]a a181 a18 a17 a71 a67 a80 a127 a77[1][0] a77ab a77bc a77cd a53cd a53[0] a78[1][1] a189[0] a189[1][0]+20000 a189[1][1] a188 a87[0] a20001+87[1][0] a87[1][1] am90 am91 a88 a187 a190"/>
    </vehicle>

    <vehicle id="18" depart="763.00" arrival="1163.00">
        <route edges="a201c a204a[0] a124 b12 b50[0] b50[1] b50[1]a a181 a18 a17 a71 a67 a80 a127 a77[1][0] a77ab a77bc a77cd a53cd a53[0] a78[1][1] a189[0] a189[1][0]+20000 a189[1][1] a188 a87[0] a20001+87[1][0] a87[1][1] am90 am91 a88 a187 a190"/>
    </vehicle>

    <vehicle id="20" depart="795.00" arrival="1165.00">
        <route edges="a201c a204a[0] a124 b12 b50[0] b50[1] b50[1]a a181 a18 a17 a71 a67 a80 a127 a77[1][0] a77ab a77bc a77cd a53cd a53[0] a78[1][1] a189[0] a189[1][0]+20000 a189[1][1] a188 a87[0] a20001+87[1][0] a87[1][1] am90 am91 a88 a187 a190"/>
    </vehicle>

    <vehicle id="21" depart="806.00" arrival="1168.00">
        <route edges="a201c a204a[0] a124 b12 b50[0] b50[1] b50[1]a a181 a18 a17 a71 a67 a80 a127 a77[1][0] a77ab a77bc a77cd a53cd a53[0] a78[1][1] a189[0] a189[1][0]+20000 a189[1][1] a188 a87[0] a20001+87[1][0] a87[1][1] am90 am91 a88 a187 a190"/>
    </vehicle>

    <vehicle id="22" depart="846.00" arrival="1173.00">
        <route edges="a201c a204a[0] a124 b12 b50[0] b50[1] b50[1]a a181 a18 a17 a71 a67 a80 a127 a77[1][0] a77ab a77bc a77cd a53cd a53[0] a78[1][1] a189[0] a189[1][0]+20000 a189[1][1] a188 a87[0] a20001+87[1][0] a87[1][1] am90 am91 a88 a187 a190"/>
    </vehicle>

    <vehicle id="29" depart="1007.00" arrival="1282.00">
        <route edges="a210 a43[0] a43[1] a201 a201c a204a[0] a124 b12 b56[0] b56[1][0] b56[1][1] b5[1][0]+66 b5[1][1][1] b8 b4[1][1][1]"/>
    </vehicle>

    <vehicle id="26" depart="895.00" arrival="1284.00">
        <route edges="a210 a43[0] a43[1] a201 a201c a204a[0] a124 b12 b56[0] b56[1][0] b56[1][1] b5[1][0]+66 b5[1][1][1] b8 b4[1][1][1]"/>
    </vehicle>

    <vehicle id="23" depart="848.00" arrival="1287.00">
        <route edges="a201c a204a[0] a124 b12 b50[0] b50[1] b50[1]a a181 a18 a17 a71 a67 a80 a127 a77[1][0] a77ab a77bc a77cd a53cd a53[0] a78[1][1] a189[0] a189[1][0]+20000 a189[1][1] a188 a87[0] a20001+87[1][0] a87[1][1] am90 am91 a88 a187 a190"/>
    </vehicle>

    <vehicle id="24" depart="850.00" arrival="1299.00">
        <route edges="a201c a204a[0] a124 b12 b50[0] b50[1] b50[1]a a181 a18 a17 a71 a67 a80 a127 a77[1][0] a77ab a77bc a77cd a53cd a53[0] a78[1][1] a189[0] a189[1][0]+20000 a189[1][1] a188 a87[0] a20001+87[1][0] a87[1][1] am90 am91 a88 a187 a190"/>
    </vehicle>

    <vehicle id="25" depart="861.00" arrival="1301.00">
        <route edges="a201c a204a[0] a124 b12 b50[0] b50[1] b50[1]a a181 a18 a17 a71 a67 a80 a127 a77[1][0] a77ab a77bc a77cd a53cd a53[0] a78[1][1] a189[0] a189[1][0]+20000 a189[1][1] a188 a87[0] a20001+87[1][0] a87[1][1] am90 am91 a88 a187 a190"/>
    </vehicle>

    <vehicle id="28" depart="1002.00" arrival="1411.00">
        <route edges="a201c a204a[0] a124 b12 b50[0] b50[1] b50[1]a a181 a18 a17 a71 a67 a80 a127 a77[1][0] a77ab a77bc a77cd a53cd a53[0] a78[1][1] a189[0] a189[1][0]+20000 a189[1][1] a188 a87[0] a20001+87[1][0] a87[1][1] am90 am91 a88 a187 a190"/>
    </vehicle>

    <vehicle id="30" depart="1071.00" arrival="1412.00">
        <route edges="a210 a43[0] a43[1] a201 a201c a204a[0] a124 b12 b56[0] b56[1][0] b56[1][1] b5[1][0]+66 b5[1][1][1] b8 b4[1][1][1]"/>
    </vehicle>

    <vehicle id="27" depart="956.00" arrival="1420.00">
        <route edges="a201c a204a[0] a124 b12 b50[0] b50[1] b50[1]a a181 a18 a17 a71 a67 a80 a127 a77[1][0] a77ab a77bc a77cd a53cd a53[0] a78[1][1] a189[0] a189[1][0]+20000 a189[1][1] a188 a87[0] a20001+87[1][0] a87[1][1] am90 am91 a88 a187 a190"/>
    </vehicle>

    <vehicle id="31" depart="1130.00" arrival="1545.00">
        <route edges="a201c a204a[0] a124 b12 b50[0] b50[1] b50[1]a a181 a18 a17 a71 a67 a80 a127 a77[1][0] a77ab a77bc a77cd a53cd a53[0] a78[1][1] a189[0] a189[1][0]+20000 a189[1][1] a188 a87[0] a20001+87[1][0] a87[1][1] am90 am91 a88 a187 a190"/>
    </vehicle>

    <vehicle id="32" depart="1159.00" arrival="1553.00">
        <route edges="a201c a204a[0] a124 b12 b50[0] b50[1] b50[1]a a181 a18 a17 a71 a67 a80 a127 a77[1][0] a77ab a77bc a77cd a53cd a53[0] a78[1][1] a189[0] a189[1][0]+20000 a189[1][1] a188 a87[0] a20001+87[1][0] a87[1][1] am90 am91 a88 a187 a190"/>
    </vehicle>

    <vehicle id="33" depart="1162.00" arrival="1555.00">
        <route edges="a201c a204a[0] a124 b12 b50[0] b50[1] b50[1]a a181 a18 a17 a71 a67 a80 a127 a77[1][0] a77ab a77bc a77cd a53cd a53[0] a78[1][1] a189[0] a189[1][0]+20000 a189[1][1] a188 a87[0] a20001+87[1][0] a87[1][1] am90 am91 a88 a187 a190"/>
    </vehicle>

    <vehicle id="34" depart="1165.00" arrival="1560.00">
        <route edges="a201c a204a[0] a124 b12 b50[0] b50[1] b50[1]a a181 a18 a17 a71 a67 a80 a127 a77[1][0] a77ab a77bc a77cd a53cd a53[0] a78[1][1] a189[0] a189[1][0]+20000 a189[1][1] a188 a87[0] a20001+87[1][0] a87[1][1] am90 am91 a88 a187 a190"/>
    </vehicle>

    <vehicle id="35" depart="1247.00" arrival="1572.00">
        <route edges="a210 a43[0] a43[1] a201 a201c a204a[0] a124 b12 b56[0] b56[1][0] b56[1][1] b5[1][0]+66 b5[1][1][1] b8 b4[1][1][1]"/>
    </vehicle>

    <vehicle id="36" depart="1276.00" arrival="1646.00">
        <route edges="a201c a204a[0] a124 b12 b50[0] b50[1] b50[1]a a181 a18 a17 a71 a67 a80 a127 a77[1][0] a77ab a77bc a77cd a53cd a53[0] a78[1][1] a189[0] a189[1][0]+20000 a189[1][1] a188 a87[0] a20001+87[1][0] a87[1][1] am90 am91 a88 a187 a190"/>
    </vehicle>

    <vehicle id="37" depart="1314.00" arrival="1648.00">
        <route edges="a201c a204a[0] a124 b12 b50[0] b50[1] b50[1]a a181 a18 a17 a71 a67 a80 a127 a77[1][0] a77ab a77bc a77cd a53cd a53[0] a78[1][1] a189[0] a189[1][0]+20000 a189[1][1] a188 a87[0] a20001+87[1][0] a87[1][1] am90 am91 a88 a187 a190"/>
    </vehicle>

    <vehicle id="39" depart="1394.00" arrival="1659.00">
        <route edges="a201c a204a[0] a124 b12 b50[0] b50[1] b50[1]a a181 a18 a17 a71 a67 a80 a127 a77[1][0] a77ab a77bc a77cd a53cd a53[0] a78[1][1] a189[0] a189[1][0]+20000 a189[1][1] a188 a87[0] a20001+87[1][0] a87[1][1] am90 am91 a88 a187 a190"/>
    </vehicle>

    <vehicle id="40" depart="1408.00" arrival="1661.00">
        <route edges="a201c a204a[0] a124 b12 b50[0] b50[1] b50[1]a a181 a18 a17 a71 a67 a80 a127 a77[1][0] a77ab a77bc a77cd a53cd a53[0] a78[1][1] a189[0] a189[1][0]+20000 a189[1][1] a188 a87[0] a20001+87[1][0] a87[1][1] am90 am91 a88 a187 a190"/>
    </vehicle>

    <vehicle id="41" depart="1430.00" arrival="1707.00">
        <route edges="a210 a43[0] a43[1] a201 a201c a204a[0] a124 b12 b56[0] b56[1][0] b56[1][1] b5[1][0]+66 b5[1][1][1] b8 b4[1][1][1]"/>
    </vehicle>

    <vehicle id="38" depart="1392.00" arrival="1724.00">
        <route edges="a16 a37 a36 a40 a153 a87[0] a20001+87[1][0] a87[1][1] am90 am91 a88 a187 a191 a17 a71 b38[0] b38[0]a b38[1][0] b38[1][1] b38[1][1]a b56[1][0] b56[1][1] b5[1][0]+66 b5[1][1][1] b8 b3[1] b3[1]b"/>
    </vehicle>

    <vehicle id="43" depart="1507.00" arrival="1807.00">
        <route edges="a201c a204a[0] a124 b12 b50[0] b50[1] b50[1]a a181 a18 a17 a71 a67 a80 a127 a77[1][0] a77ab a77bc a77cd a53cd a53[0] a78[1][1] a189[0] a189[1][0]+20000 a189[1][1] a188 a87[0] a20001+87[1][0] a87[1][1] am90 am91 a88 a187 a190"/>
    </vehicle>

    <vehicle id="44" depart="1550.00" arrival="1811.00">
        <route edges="a201c a204a[0] a124 b12 b50[0] b50[1] b50[1]a a181 a18 a17 a71 a67 a80 a127 a77[1][0] a77ab a77bc a77cd a53cd a53[0] a78[1][1] a189[0] a189[1][0]+20000 a189[1][1] a188 a87[0] a20001+87[1][0] a87[1][1] am90 am91 a88 a187 a190"/>
    </vehicle>

    <vehicle id="42" depart="1458.00" arrival="1939.00">
        <route edges="a16 a37 a36 a40 a153 a87[0] a20001+87[1][0] a87[1][1] am90 am91 a88 a187 a191 a17 a71 b38[0] b38[0]a b38[1][0] b38[1][1] b38[1][1]a b56[1][0] b56[1][1] b5[1][0]+66 b5[1][1][1] b8 b3[1] b3[1]b"/>
    </vehicle>

    <vehicle id="48" depart="1745.00" arrival="2028.00">
        <route edges="a201c a204a[0] a124 b12 b50[0] b50[1] b50[1]a a181 a18 a17 a71 a67 a80 a127 a77[1][0] a77ab a77bc a77cd a53cd a53[0] a78[1][1] a189[0] a189[1][0]+20000 a189[1][1] a188 a87[0] a20001+87[1][0] a87[1][1] am90 am91 a88 a187 a190"/>
    </vehicle>

    <vehicle id="45" depart="1722.00" arrival="2044.00">
        <route edges="a210 a43[0] a43[1] a201 a201c a204a[0] a124 b12 b56[0] b56[1][0] b56[1][1] b5[1][0]+66 b5[1][1][1] b8 b4[1][1][1]"/>
    </vehicle>

    <vehicle id="46" depart="1726.00" arrival="2060.00">
        <route edges="a210 a43[0] a43[1] a201 a201c a204a[0] a124 b12 b56[0] b56[1][0] b56[1][1] b5[1][0]+66 b5[1][1][1] b8 b4[1][1][1]"/>
    </vehicle>

    <vehicle id="47" depart="1734.00" arrival="2066.00">
        <route edges="a210 a43[0] a43[1] a201 a201c a204a[0] a124 b12 b56[0] b56[1][0] b56[1][1] b5[1][0]+66 b5[1][1][1] b8 b4[1][1][1]"/>
    </vehicle>

    <vehicle id="50" depart="1822.00" arrival="2104.00">
        <route edges="a210 a43[0] a43[1] a201 a201c a204a[0] a124 b12 b56[0] b56[1][0] b56[1][1] b5[1][0]+66 b5[1][1][1] b8 b4[1][1][1]"/>
    </vehicle>

    <vehicle id="51" depart="1836.00" arrival="2133.00">
        <route edges="a201c a204a[0] a124 b12 b50[0] b50[1] b50[1]a a181 a18 a17 a71 a67 a80 a127 a77[1][0] a77ab a77bc a77cd a53cd a53[0] a78[1][1] a189[0] a189[1][0]+20000 a189[1][1] a188 a87[0] a20001+87[1][0] a87[1][1] am90 am91 a88 a187 a190"/>
    </vehicle>

    <vehicle id="49" depart="1805.00" arrival="2157.00">
        <route edges="a201c a204a[0] a124 b12 b50[0] b50[1] b50[1]a a181 a18 a17 a71 a67 a80 a127 a77[1][0] a77ab a77bc a77cd a53cd a53[0] a78[1][1] a189[0] a189[1][0]+20000 a189[1][1] a188 a87[0] a20001+87[1][0] a87[1][1] am90 am91 a88 a187 a190"/>
    </vehicle>

    <vehicle id="52" depart="1892.00" arrival="2158.00">
        <route edges="a201c a204a[0] a124 b12 b50[0] b50[1] b50[1]a a181 a18 a17 a71 a67 a80 a127 a77[1][0] a77ab a77bc a77cd a53cd a53[0] a78[1][1] a189[0] a189[1][0]+20000 a189[1][1] a188 a87[0] a20001+87[1][0] a87[1][1] am90 am91 a88 a187 a190"/>
    </vehicle>

    <vehicle id="53" depart="1917.00" arrival="2277.00">
        <route edges="a201c a204a[0] a124 b12 b50[0] b50[1] b50[1]a a181 a18 a17 a71 a67 a80 a127 a77[1][0] a77ab a77bc a77cd a53cd a53[0] a78[1][1] a189[0] a189[1][0]+20000 a189[1][1] a188 a87[0] a20001+87[1][0] a87[1][1] am90 am91 a88 a187 a190"/>
    </vehicle>

    <vehicle id="54" depart="1944.00" arrival="2303.00">
        <route edges="a201c a204a[0] a124 b12 b50[0] b50[1] b50[1]a a181 a18 a17 a71 a67 a80 a127 a77[1][0] a77ab a77bc a77cd a53cd a53[0] a78[1][1] a189[0] a189[1][0]+20000 a189[1][1] a188 a87[0] a20001+87[1][0] a87[1][1] am90 am91 a88 a187 a190"/>
    </vehicle>

    <vehicle id="55" depart="2032.00" arrival="2309.00">
        <route edges="a201c a204a[0] a124 b12 b50[0] b50[1] b50[1]a a181 a18 a17 a71 a67 a80 a127 a77[1][0] a77ab a77bc a77cd a53cd a53[0] a78[1][1] a189[0] a189[1][0]+20000 a189[1][1] a188 a87[0] a20001+87[1][0] a87[1][1] am90 am91 a88 a187 a190"/>
    </vehicle>

    <vehicle id="59" depart="2071.00" arrival="2381.00">
        <route edges="a210 a43[0] a43[1] a201 a201c a204a[0] a124 b12 b56[0] b56[1][0] b56[1][1] b5[1][0]+66 b5[1][1][1] b8 b4[1][1][1]"/>
    </vehicle>

    <vehicle id="56" depart="2040.00" arrival="2394.00">
        <route edges="a201c a204a[0] a124 b12 b50[0] b50[1] b50[1]a a181 a18 a17 a71 a67 a80 a127 a77[1][0] a77ab a77bc a77cd a53cd a53[0] a78[1][1] a189[0] a189[1][0]+20000 a189[1][1] a188 a87[0] a20001+87[1][0] a87[1][1] am90 am91 a88 a187 a190"/>
    </vehicle>

    <vehicle id="57" depart="2063.00" arrival="2395.00">
        <route edges="a201c a204a[0] a124 b12 b50[0] b50[1] b50[1]a a181 a18 a17 a71 a67 a80 a127 a77[1][0] a77ab a77bc a77cd a53cd a53[0] a78[1][1] a189[0] a189[1][0]+20000 a189[1][1] a188 a87[0] a20001+87[1][0] a87[1][1] am90 am91 a88 a187 a190"/>
    </vehicle>

    <vehicle id="58" depart="2069.00" arrival="2443.00">
        <route edges="a201c a204a[0] a124 b12 b50[0] b50[1] b50[1]a a181 a18 a17 a71 a67 a80 a127 a77[1][0] a77ab a77bc a77cd a53cd a53[0] a78[1][1] a189[0] a189[1][0]+20000 a189[1][1] a188 a87[0] a20001+87[1][0] a87[1][1] am90 am91 a88 a187 a190"/>
    </vehicle>

    <vehicle id="60" depart="2096.00" arrival="2444.00">
        <route edges="a201c a204a[0] a124 b12 b50[0] b50[1] b50[1]a a181 a18 a17 a71 a67 a80 a127 a77[1][0] a77ab a77bc a77cd a53cd a53[0] a78[1][1] a189[0] a189[1][0]+20000 a189[1][1] a188 a87[0] a20001+87[1][0] a87[1][1] am90 am91 a88 a187 a190"/>
    </vehicle>

    <vehicle id="61" depart="2140.00" arrival="2505.00">
        <route edges="a210 a43[0] a43[1] a115 a110 a185 a92 a90 am91 a88 a187 a191 a17 a71 b38[0] b38[0]a b37 b26 b26.-170 b15 b14"/>
    </vehicle>

    <vehicle id="63" depart="2183.00" arrival="2505.00">
        <route edges="a201c a204a[0] a124 b12 b50[0] b50[1] b50[1]a a181 a18 a17 a71 a67 a80 a127 a77[1][0] a77ab a77bc a77cd a53cd a53[0] a78[1][1] a189[0] a189[1][0]+20000 a189[1][1] a188 a87[0] a20001+87[1][0] a87[1][1] am90 am91 a88 a187 a190"/>
    </vehicle>

    <vehicle id="64" depart="2225.00" arrival="2554.00">
        <route edges="a210 a43[0] a43[1] a201 a201c a204a[0] a124 b12 b56[0] b56[1][0] b56[1][1] b5[1][0]+66 b5[1][1][1] b8 b4[1][1][1]"/>
    </vehicle>

    <vehicle id="69" depart="2280.00" arrival="2556.00">
        <route edges="a210 a43[0] a43[1] a201 a201c a204a[0] a124 b12 b56[0] b56[1][0] b56[1][1] b5[1][0]+66 b5[1][1][1] b8 b4[1][1][1]"/>
    </vehicle>

    <vehicle id="62" depart="2170.00" arrival="2582.00">
        <route edges="a16 a37 a36 a40 a153 a87[0] a20001+87[1][0] a87[1][1] am90 am91 a88 a187 a191 a17 a71 b38[0] b38[0]a b38[1][0] b38[1][1] b38[1][1]a b56[1][0] b56[1][1] b5[1][0]+66 b5[1][1][1] b8 b3[1] b3[1]b"/>
    </vehicle>

    <vehicle id="66" depart="2232.00" arrival="2639.00">
        <route edges="a201c a204a[0] a124 b12 b50[0] b50[1] b50[1]a a181 a18 a17 a71 a67 a80 a127 a77[1][0] a77ab a77bc a77cd a53cd a53[0] a78[1][1] a189[0] a189[1][0]+20000 a189[1][1] a188 a87[0] a20001+87[1][0] a87[1][1] am90 am91 a88 a187 a190"/>
    </vehicle>

    <vehicle id="65" depart="2229.00" arrival="2645.00">
        <route edges="a201c a204a[0] a124 b12 b50[0] b50[1] b50[1]a a181 a18 a17 a71 a67 a80 a127 a77[1][0] a77ab a77bc a77cd a53cd a53[0] a78[1][1] a189[0] a189[1][0]+20000 a189[1][1] a188 a87[0] a20001+87[1][0] a87[1][1] am90 am91 a88 a187 a190"/>
    </vehicle>

    <vehicle id="67" depart="2261.00" arrival="2648.00">
        <route edges="a201c a204a[0] a124 b12 b50[0] b50[1] b50[1]a a181 a18 a17 a71 a67 a80 a127 a77[1][0] a77ab a77bc a77cd a53cd a53[0] a78[1][1] a189[0] a189[1][0]+20000 a189[1][1] a188 a87[0] a20001+87[1][0] a87[1][1] am90 am91 a88 a187 a190"/>
    </vehicle>

    <vehicle id="68" depart="2266.00" arrival="2650.00">
        <route edges="a201c a204a[0] a124 b12 b50[0] b50[1] b50[1]a a181 a18 a17 a71 a67 a80 a127 a77[1][0] a77ab a77bc a77cd a53cd a53[0] a78[1][1] a189[0] a189[1][0]+20000 a189[1][1] a188 a87[0] a20001+87[1][0] a87[1][1] am90 am91 a88 a187 a190"/>
    </vehicle>

    <vehicle id="70" depart="2355.00" arrival="2651.00">
        <route edges="a201c a204a[0] a124 b12 b50[0] b50[1] b50[1]a a181 a18 a17 a71 a67 a80 a127 a77[1][0] a77ab a77bc a77cd a53cd a53[0] a78[1][1] a189[0] a189[1][0]+20000 a189[1][1] a188 a87[0] a20001+87[1][0] a87[1][1] am90 am91 a88 a187 a190"/>
    </vehicle>

    <vehicle id="71" depart="2361.00" arrival="2681.00">
        <route edges="a210 a43[0] a43[1] a201 a201c a204a[0] a124 b12 b56[0] b56[1][0] b56[1][1] b5[1][0]+66 b5[1][1][1] b8 b4[1][1][1]"/>
    </vehicle>

    <vehicle id="73" depart="2428.00" arrival="2759.00">
        <route edges="a201c a204a[0] a124 b12 b50[0] b50[1] b50[1]a a181 a18 a17 a71 a67 a80 a127 a77[1][0] a77ab a77bc a77cd a53cd a53[0] a78[1][1] a189[0] a189[1][0]+20000 a189[1][1] a188 a87[0] a20001+87[1][0] a87[1][1] am90 am91 a88 a187 a190"/>
    </vehicle>

    <vehicle id="75" depart="2490.00" arrival="2760.00">
        <route edges="a210 a43[0] a43[1] a115 a110 a185 a92 a90 am91 a88 a187 a191 a17 a71 b38[0] b38[0]a b37 b26 b26.-170 b15 b14"/>
    </vehicle>

    <vehicle id="72" depart="2399.00" arrival="2767.00">
        <route edges="a201c a204a[0] a124 b12 b50[0] b50[1] b50[1]a a181 a18 a17 a71 a67 a80 a127 a77[1][0] a77ab a77bc a77cd a53cd a53[0] a78[1][1] a189[0] a189[1][0]+20000 a189[1][1] a188 a87[0] a20001+87[1][0] a87[1][1] am90 am91 a88 a187 a190"/>
    </vehicle>

    <vehicle id="77" depart="2608.00" arrival="2853.00">
        <route edges="a210 a43[0] a43[1] a201 a201c a204a[0] a124 b12 b56[0] b56[1][0] b56[1][1] b5[1][0]+66 b5[1][1][1] b8 b4[1][1][1]"/>
    </vehicle>

    <vehicle id="74" depart="2452.00" arrival="2873.00">
        <route edges="a16 a37 a36 a40 a153 a87[0] a20001+87[1][0] a87[1][1] am90 am91 a88 a187 a191 a17 a71 b38[0] b38[0]a b38[1][0] b38[1][1] b38[1][1]a b56[1][0] b56[1][1] b5[1][0]+66 b5[1][1][1] b8 b3[1] b3[1]b"/>
    </vehicle>

    <vehicle id="76" depart="2598.00" arrival="2934.00">
        <route edges="a16 a37 a36 a40 a153 a87[0] a20001+87[1][0] a87[1][1] am90 am91 a88 a187 a191 a17 a71 b38[0] b38[0]a b38[1][0] b38[1][1] b38[1][1]a b56[1][0] b56[1][1] b5[1][0]+66 b5[1][1][1] b8 b3[1] b3[1]b"/>
    </vehicle>

    <vehicle id="80" depart="2818.00" arrival="3096.00">
        <route edges="a210 a43[0] a43[1] a201 a201c a204a[0] a124 b12 b56[0] b56[1][0] b56[1][1] b5[1][0]+66 b5[1][1][1] b8 b4[1][1][1]"/>
    </vehicle>

    <vehicle id="81" depart="2831.00" arrival="3101.00">
        <route edges="a210 a43[0] a43[1] a201 a201c a204a[0] a124 b12 b56[0] b56[1][0] b56[1][1] b5[1][0]+66 b5[1][1][1] b8 b4[1][1][1]"/>
    </vehicle>

    <vehicle id="78" depart="2716.00" arrival="3136.00">
        <route edges="a201c a204a[0] a124 b12 b50[0] b50[1] b50[1]a a181 a18 a17 a71 a67 a80 a127 a77[1][0] a77ab a77bc a77cd a53cd a53[0] a78[1][1] a189[0] a189[1][0]+20000 a189[1][1] a188 a87[0] a20001+87[1][0] a87[1][1] am90 am91 a88 a187 a190"/>
    </vehicle>

    <vehicle id="79" depart="2797.00" arrival="3205.00">
        <route edges="a16 a37 a36 a40 a153 a87[0] a20001+87[1][0] a87[1][1] am90 am91 a88 a187 a191 a17 a71 b38[0] b38[0]a b38[1][0] b38[1][1] b38[1][1]a b56[1][0] b56[1][1] b5[1][0]+66 b5[1][1][1] b8 b3[1] b3[1]b"/>
    </vehicle>

    <vehicle id="83" depart="2852.00" arrival="3208.00">
        <route edges="a16 a37 a36 a40 a153 a87[0] a20001+87[1][0] a87[1][1] am90 am91 a88 a187 a191 a17 a71 b38[0] b38[0]a b38[1][0] b38[1][1] b38[1][1]a b56[1][0] b56[1][1] b5[1][0]+66 b5[1][1][1] b8 b3[1] b3[1]b"/>
    </vehicle>

    <vehicle id="82" depart="2846.00" arrival="3275.00">
        <route edges="a201c a204a[0] a124 b12 b50[0] b50[1] b50[1]a a181 a18 a17 a71 a67 a80 a127 a77[1][0] a77ab a77bc a77cd a53cd a53[0] a78[1][1] a189[0] a189[1][0]+20000 a189[1][1] a188 a87[0] a20001+87[1][0] a87[1][1] am90 am91 a88 a187 a190"/>
    </vehicle>

    <vehicle id="84" depart="2948.00" arrival="3277.00">
        <route edges="a201c a204a[0] a124 b12 b50[0] b50[1] b50[1]a a181 a18 a17 a71 a67 a80 a127 a77[1][0] a77ab a77bc a77cd a53cd a53[0] a78[1][1] a189[0] a189[1][0]+20000 a189[1][1] a188 a87[0] a20001+87[1][0] a87[1][1] am90 am91 a88 a187 a190"/>
    </vehicle>

    <vehicle id="86" depart="2972.00" arrival="3314.00">
        <route edges="a210 a43[0] a43[1] a201 a201c a204a[0] a124 b12 b56[0] b56[1][0] b56[1][1] b5[1][0]+66 b5[1][1][1] b8 b4[1][1][1]"/>
    </vehicle>

    <vehicle id="88" depart="3004.00" arrival="3316.00">
        <route edges="a210 a43[0] a43[1] a201 a201c a204a[0] a124 b12 b56[0] b56[1][0] b56[1][1] b5[1][0]+66 b5[1][1][1] b8 b4[1][1][1]"/>
    </vehicle>

    <vehicle id="85" depart="2971.00" arrival="3334.00">
        <route edges="a16 a37 a36 a40 a153 a87[0] a20001+87[1][0] a87[1][1] am90 am91 a88 a187 a191 a17 a71 b38[0] b38[0]a b38[1][0] b38[1][1] b38[1][1]a b56[1][0] b56[1][1] b5[1][0]+66 b5[1][1][1] b8 b3[1] b3[1]b"/>
    </vehicle>

    <vehicle id="87" depart="2986.00" arrival="3362.00">
        <route edges="a201c a204a[0] a124 b12 b50[0] b50[1] b50[1]a a181 a18 a17 a71 a67 a80 a127 a77[1][0] a77ab a77bc a77cd a53cd a53[0] a78[1][1] a189[0] a189[1][0]+20000 a189[1][1] a188 a87[0] a20001+87[1][0] a87[1][1] am90 am91 a88 a187 a190"/>
    </vehicle>

    <vehicle id="89" depart="3053.00" arrival="3366.00">
        <route edges="a201c a204a[0] a124 b12 b50[0] b50[1] b50[1]a a181 a18 a17 a71 a67 a80 a127 a77[1][0] a77ab a77bc a77cd a53cd a53[0] a78[1][1] a189[0] a189[1][0]+20000 a189[1][1] a188 a87[0] a20001+87[1][0] a87[1][1] am90 am91 a88 a187 a190"/>
    </vehicle>

    <vehicle id="90" depart="3066.00" arrival="3371.00">
        <route edges="a201c a204a[0] a124 b12 b50[0] b50[1] b50[1]a a181 a18 a17 a71 a67 a80 a127 a77[1][0] a77ab a77bc a77cd a53cd a53[0] a78[1][1] a189[0] a189[1][0]+20000 a189[1][1] a188 a87[0] a20001+87[1][0] a87[1][1] am90 am91 a88 a187 a190"/>
    </vehicle>

    <vehicle id="91" depart="3145.00" arrival="3441.00">
        <route edges="a210 a43[0] a43[1] a201 a201c a204a[0] a124 b12 b56[0] b56[1][0] b56[1][1] b5[1][0]+66 b5[1][1][1] b8 b4[1][1][1]"/>
    </vehicle>

    <vehicle id="92" depart="3154.00" arrival="3511.00">
        <route edges="a201c a204a[0] a124 b12 b50[0] b50[1] b50[1]a a181 a18 a17 a71 a67 a80 a127 a77[1][0] a77ab a77bc a77cd a53cd a53[0] a78[1][1] a189[0] a189[1][0]+20000 a189[1][1] a188 a87[0] a20001+87[1][0] a87[1][1] am90 am91 a88 a187 a190"/>
    </vehicle>

    <vehicle id="93" depart="3234.00" arrival="3513.00">
        <route edges="a201c a204a[0] a124 b12 b50[0] b50[1] b50[1]a a181 a18 a17 a71 a67 a80 a127 a77[1][0] a77ab a77bc a77cd a53cd a53[0] a78[1][1] a189[0] a189[1][0]+20000 a189[1][1] a188 a87[0] a20001+87[1][0] a87[1][1] am90 am91 a88 a187 a190"/>
    </vehicle>

    <vehicle id="94" depart="3358.00" arrival="3627.00">
        <route edges="a201c a204a[0] a124 b12 b50[0] b50[1] b50[1]a a181 a18 a17 a71 a67 a80 a127 a77[1][0] a77ab a77bc a77cd a53cd a53[0] a78[1][1] a189[0] a189[1][0]+20000 a189[1][1] a188 a87[0] a20001+87[1][0] a87[1][1] am90 am91 a88 a187 a190"/>
    </vehicle>

    <vehicle id="95" depart="3372.00" arrival="3631.00">
        <route edges="a201c a204a[0] a124 b12 b50[0] b50[1] b50[1]a a181 a18 a17 a71 a67 a80 a127 a77[1][0] a77ab a77bc a77cd a53cd a53[0] a78[1][1] a189[0] a189[1][0]+20000 a189[1][1] a188 a87[0] a20001+87[1][0] a87[1][1] am90 am91 a88 a187 a190"/>
    </vehicle>

    <vehicle id="96" depart="3393.00" arrival="3770.00">
        <route edges="a201c a204a[0] a124 b12 b50[0] b50[1] b50[1]a a181 a18 a17 a71 a67 a80 a127 a77[1][0] a77ab a77bc a77cd a53cd a53[0] a78[1][1] a189[0] a189[1][0]+20000 a189[1][1] a188 a87[0] a20001+87[1][0] a87[1][1] am90 am91 a88 a187 a190"/>
    </vehicle>

    <vehicle id="98" depart="3447.00" arrival="3772.00">
        <route edges="a201c a204a[0] a124 b12 b50[0] b50[1] b50[1]a a181 a18 a17 a71 a67 a80 a127 a77[1][0] a77ab a77bc a77cd a53cd a53[0] a78[1][1] a189[0] a189[1][0]+20000 a189[1][1] a188 a87[0] a20001+87[1][0] a87[1][1] am90 am91 a88 a187 a190"/>
    </vehicle>
