<?xml version="1.0" encoding="UTF-8"?>

<!-- generated on 2025-03-21 17:45:12 by Eclipse SUMO sumo Version 1.21.0
<sumoConfiguration xmlns:xsi="http://www.w3.org/2001/XMLSchema-instance" xsi:noNamespaceSchemaLocation="http://sumo.dlr.de/xsd/sumoConfiguration.xsd">

    <input>
        <net-file value="${STATICPATH}/joined_lanes.net.xml"/>
        <route-files value="${SIMULATIONPATH}/generatedRoutes.rou.xml"/>
        <additional-files value="${STATICPATH}/detectors.add.xml,${STATICPATH}/joined_vtypes.add.xml,${STATICPATH}/joined_tls.add.xml"/>
    </input>

    <output>
        <fcd-output value="${SIMULATIONPATH}/fcd.xml"/>
        <queue-output value="${SIMULATIONPATH}/queue.xml"/>
        <summary-output value="${SIMULATIONPATH}/summary.xml"/>
        <tripinfo-output value="${SIMULATIONPATH}/tripinfos.xml"/>
        <vehroute-output value="${SIMULATIONPATH}/vehroute.xml"/>
        <save-state.prefix value="configs\state"/>
    </output>

    <processing>
        <ignore-junction-blocker value="1"/>
        <ignore-route-errors value="true"/>
        <time-to-teleport value="-1"/>
    </processing>

    <report>
        <log value="C:/Users/fabio/Desktop/sumo_log.txt"/>
        <no-step-log value="true"/>
    </report>

    <emissions>
        <phemlight-path value="configs\./PHEMlight/"/>
    </emissions>

    <traci_server>
        <remote-port value="60143"/>
    </traci_server>

</sumoConfiguration>
-->

<tripinfos xmlns:xsi="http://www.w3.org/2001/XMLSchema-instance" xsi:noNamespaceSchemaLocation="http://sumo.dlr.de/xsd/tripinfo_file.xsd">
    <tripinfo id="0" depart="40.00" departLane="a72[1]_0" departPos="5.10" departSpeed="0.00" departDelay="0.29" arrival="485.00" arrivalLane="b2[1][1][1]b_0" arrivalPos="325.74" arrivalSpeed="14.09" duration="445.00" routeLength="3087.45" waitingTime="180.00" waitingCount="5" stopTime="0.00" timeLoss="233.28" rerouteNo="0" devices="vehroute_0 tripinfo_0 fcd_0" vType="DEFAULT_VEHTYPE" speedFactor="1.06" vaporized=""/>
    <tripinfo id="2" depart="47.00" departLane="a72[1]_0" departPos="5.10" departSpeed="0.00" departDelay="3.37" arrival="489.00" arrivalLane="b2[1][1][1]b_0" arrivalPos="325.74" arrivalSpeed="13.37" duration="442.00" routeLength="3084.49" waitingTime="177.00" waitingCount="4" stopTime="0.00" timeLoss="219.40" rerouteNo="0" devices="vehroute_2 tripinfo_2 fcd_2" vType="DEFAULT_VEHTYPE" speedFactor="1.01" vaporized=""/>
    <tripinfo id="4" depart="76.00" departLane="a72[1]_0" departPos="5.10" departSpeed="0.00" departDelay="0.60" arrival="489.00" arrivalLane="b2[1][1][1]b_1" arrivalPos="325.74" arrivalSpeed="13.95" duration="413.00" routeLength="3084.49" waitingTime="143.00" waitingCount="3" stopTime="0.00" timeLoss="194.38" rerouteNo="0" devices="vehroute_4 tripinfo_4 fcd_4" vType="DEFAULT_VEHTYPE" speedFactor="1.03" vaporized=""/>
    <tripinfo id="3" depart="70.00" departLane="a72[1]_0" departPos="5.10" departSpeed="0.00" departDelay="0.91" arrival="490.00" arrivalLane="b2[1][1][1]b_0" arrivalPos="325.74" arrivalSpeed="13.86" duration="420.00" routeLength="3084.49" waitingTime="158.00" waitingCount="3" stopTime="0.00" timeLoss="213.11" rerouteNo="0" devices="vehroute_3 tripinfo_3 fcd_3" vType="DEFAULT_VEHTYPE" speedFactor="1.08" vaporized=""/>
    <tripinfo id="6" depart="151.00" departLane="a72[1]_0" departPos="5.10" departSpeed="0.00" departDelay="0.98" arrival="490.00" arrivalLane="b2[1][1][1]b_2" arrivalPos="325.74" arrivalSpeed="14.18" duration="339.00" routeLength="3087.45" waitingTime="91.00" waitingCount="2" stopTime="0.00" timeLoss="123.71" rerouteNo="0" devices="vehroute_6 tripinfo_6 fcd_6" vType="DEFAULT_VEHTYPE" speedFactor="1.05" vaporized=""/>
    <tripinfo id="1" depart="44.00" departLane="a72[1]_0" departPos="5.10" departSpeed="0.00" departDelay="0.41" arrival="497.00" arrivalLane="b2[1][1][1]b_0" arrivalPos="325.74" arrivalSpeed="13.03" duration="453.00" routeLength="3087.45" waitingTime="161.00" waitingCount="3" stopTime="0.00" timeLoss="213.54" rerouteNo="0" devices="vehroute_1 tripinfo_1 fcd_1" vType="DEFAULT_VEHTYPE" speedFactor="0.94" vaporized=""/>
    <tripinfo id="5" depart="139.00" departLane="a72[1]_0" departPos="5.10" departSpeed="0.00" departDelay="0.67" arrival="509.00" arrivalLane="b2[1][1][1]b_0" arrivalPos="325.74" arrivalSpeed="10.98" duration="370.00" routeLength="3091.94" waitingTime="58.00" waitingCount="4" stopTime="0.00" timeLoss="99.25" rerouteNo="0" devices="vehroute_5 tripinfo_5 fcd_5" vType="DEFAULT_VEHTYPE" speedFactor="0.83" vaporized=""/>
    <tripinfo id="10" depart="260.00" departLane="a72[1]_0" departPos="5.10" departSpeed="0.00" departDelay="0.50" arrival="619.00" arrivalLane="b2[1][1][1]b_0" arrivalPos="325.74" arrivalSpeed="14.72" duration="359.00" routeLength="3084.49" waitingTime="106.00" waitingCount="5" stopTime="0.00" timeLoss="153.04" rerouteNo="0" devices="vehroute_10 tripinfo_10 fcd_10" vType="DEFAULT_VEHTYPE" speedFactor="1.09" vaporized=""/>
    <tripinfo id="8" depart="240.00" departLane="a72[1]_0" departPos="5.10" departSpeed="0.00" departDelay="0.05" arrival="621.00" arrivalLane="b2[1][1][1]b_2" arrivalPos="325.74" arrivalSpeed="12.81" duration="381.00" routeLength="3087.45" waitingTime="96.00" waitingCount="3" stopTime="0.00" timeLoss="141.01" rerouteNo="0" devices="vehroute_8 tripinfo_8 fcd_8" vType="DEFAULT_VEHTYPE" speedFactor="0.94" vaporized=""/>
    <tripinfo id="11" depart="296.00" departLane="a72[1]_0" departPos="5.10" departSpeed="0.00" departDelay="0.18" arrival="621.00" arrivalLane="b2[1][1][1]b_1" arrivalPos="325.74" arrivalSpeed="13.40" duration="325.00" routeLength="3087.45" waitingTime="68.00" waitingCount="2" stopTime="0.00" timeLoss="105.94" rerouteNo="0" devices="vehroute_11 tripinfo_11 fcd_11" vType="DEFAULT_VEHTYPE" speedFactor="1.03" vaporized=""/>
    <tripinfo id="7" depart="225.00" departLane="a72[1]_0" departPos="5.10" departSpeed="0.00" departDelay="0.75" arrival="627.00" arrivalLane="b2[1][1][1]b_0" arrivalPos="325.74" arrivalSpeed="11.16" duration="402.00" routeLength="3091.94" waitingTime="102.00" waitingCount="5" stopTime="0.00" timeLoss="148.04" rerouteNo="0" devices="vehroute_7 tripinfo_7 fcd_7" vType="DEFAULT_VEHTYPE" speedFactor="0.89" vaporized=""/>
    <tripinfo id="9" depart="257.00" departLane="a72[1]_0" departPos="5.10" departSpeed="0.00" departDelay="0.48" arrival="628.00" arrivalLane="b2[1][1][1]b_1" arrivalPos="325.74" arrivalSpeed="10.60" duration="371.00" routeLength="3087.45" waitingTime="74.00" waitingCount="2" stopTime="0.00" timeLoss="108.25" rerouteNo="0" devices="vehroute_9 tripinfo_9 fcd_9" vType="DEFAULT_VEHTYPE" speedFactor="0.86" vaporized=""/>
    <tripinfo id="13" depart="354.00" departLane="a72[1]_0" departPos="5.10" departSpeed="0.00" departDelay="0.90" arrival="743.00" arrivalLane="b2[1][1][1]b_0" arrivalPos="325.74" arrivalSpeed="14.90" duration="389.00" routeLength="3084.49" waitingTime="145.00" waitingCount="5" stopTime="0.00" timeLoss="189.44" rerouteNo="0" devices="vehroute_13 tripinfo_13 fcd_13" vType="DEFAULT_VEHTYPE" speedFactor="1.12" vaporized=""/>
    <tripinfo id="12" depart="306.00" departLane="a72[1]_0" departPos="5.10" departSpeed="0.00" departDelay="0.75" arrival="745.00" arrivalLane="b2[1][1][1]b_1" arrivalPos="325.74" arrivalSpeed="14.06" duration="439.00" routeLength="3088.98" waitingTime="175.00" waitingCount="6" stopTime="0.00" timeLoss="224.08" rerouteNo="0" devices="vehroute_12 tripinfo_12 fcd_12" vType="DEFAULT_VEHTYPE" speedFactor="1.05" vaporized=""/>
    <tripinfo id="15" depart="364.00" departLane="a72[1]_0" departPos="5.10" departSpeed="0.00" departDelay="0.24" arrival="748.00" arrivalLane="b2[1][1][1]b_1" arrivalPos="325.74" arrivalSpeed="12.21" duration="384.00" routeLength="3084.49" waitingTime="97.00" waitingCount="3" stopTime="0.00" timeLoss="142.02" rerouteNo="0" devices="vehroute_15 tripinfo_15 fcd_15" vType="DEFAULT_VEHTYPE" speedFactor="0.93" vaporized=""/>
    <tripinfo id="14" depart="357.00" departLane="a72[1]_0" departPos="5.10" departSpeed="0.00" departDelay="2.78" arrival="749.00" arrivalLane="b2[1][1][1]b_0" arrivalPos="325.74" arrivalSpeed="13.13" duration="392.00" routeLength="3084.49" waitingTime="114.00" waitingCount="4" stopTime="0.00" timeLoss="164.50" rerouteNo="0" devices="vehroute_14 tripinfo_14 fcd_14" vType="DEFAULT_VEHTYPE" speedFactor="0.99" vaporized=""/>
    <tripinfo id="16" depart="396.00" departLane="a72[1]_0" departPos="5.10" departSpeed="0.00" departDelay="0.95" arrival="752.00" arrivalLane="b2[1][1][1]b_0" arrivalPos="325.74" arrivalSpeed="10.94" duration="356.00" routeLength="3087.45" waitingTime="60.00" waitingCount="3" stopTime="0.00" timeLoss="100.24" rerouteNo="0" devices="vehroute_16 tripinfo_16 fcd_16" vType="DEFAULT_VEHTYPE" speedFactor="0.88" vaporized=""/>
    <tripinfo id="19" depart="494.00" departLane="a72[1]_0" departPos="5.10" departSpeed="0.00" departDelay="0.41" arrival="867.00" arrivalLane="b2[1][1][1]b_0" arrivalPos="325.74" arrivalSpeed="15.74" duration="373.00" routeLength="3084.49" waitingTime="113.00" waitingCount="4" stopTime="0.00" timeLoss="179.06" rerouteNo="0" devices="vehroute_19 tripinfo_19 fcd_19" vType="DEFAULT_VEHTYPE" speedFactor="1.16" vaporized=""/>
    <tripinfo id="20" depart="541.00" departLane="a72[1]_0" departPos="5.10" departSpeed="0.00" departDelay="0.82" arrival="871.00" arrivalLane="b2[1][1][1]b_1" arrivalPos="325.74" arrivalSpeed="13.22" duration="330.00" routeLength="3084.49" waitingTime="69.00" waitingCount="3" stopTime="0.00" timeLoss="108.68" rerouteNo="0" devices="vehroute_20 tripinfo_20 fcd_20" vType="DEFAULT_VEHTYPE" speedFactor="1.02" vaporized=""/>
    <tripinfo id="21" depart="544.00" departLane="a72[1]_0" departPos="5.10" departSpeed="0.00" departDelay="3.39" arrival="871.00" arrivalLane="b2[1][1][1]b_0" arrivalPos="325.74" arrivalSpeed="13.17" duration="327.00" routeLength="3091.94" waitingTime="66.00" waitingCount="4" stopTime="0.00" timeLoss="103.84" rerouteNo="0" devices="vehroute_21 tripinfo_21 fcd_21" vType="DEFAULT_VEHTYPE" speedFactor="1.01" vaporized=""/>
    <tripinfo id="18" depart="471.00" departLane="a72[1]_0" departPos="5.10" departSpeed="0.00" departDelay="0.44" arrival="874.00" arrivalLane="b2[1][1][1]b_0" arrivalPos="325.74" arrivalSpeed="12.80" duration="403.00" routeLength="3084.49" waitingTime="118.00" waitingCount="5" stopTime="0.00" timeLoss="163.62" rerouteNo="0" devices="vehroute_18 tripinfo_18 fcd_18" vType="DEFAULT_VEHTYPE" speedFactor="0.94" vaporized=""/>
    <tripinfo id="17" depart="437.00" departLane="a72[1]_0" departPos="5.10" departSpeed="0.00" departDelay="0.01" arrival="875.00" arrivalLane="b2[1][1][1]b_1" arrivalPos="325.74" arrivalSpeed="12.14" duration="438.00" routeLength="3091.94" waitingTime="149.00" waitingCount="5" stopTime="0.00" timeLoss="198.90" rerouteNo="0" devices="vehroute_17 tripinfo_17 fcd_17" vType="DEFAULT_VEHTYPE" speedFactor="0.94" vaporized=""/>
    <tripinfo id="22" depart="627.00" departLane="a72[1]_0" departPos="5.10" departSpeed="0.00" departDelay="0.21" arrival="997.00" arrivalLane="b2[1][1][1]b_0" arrivalPos="325.74" arrivalSpeed="12.84" duration="370.00" routeLength="3088.98" waitingTime="92.00" waitingCount="5" stopTime="0.00" timeLoss="139.91" rerouteNo="0" devices="vehroute_22 tripinfo_22 fcd_22" vType="DEFAULT_VEHTYPE" speedFactor="0.97" vaporized=""/>
    <tripinfo id="23" depart="667.00" departLane="a72[1]_0" departPos="5.10" departSpeed="0.00" departDelay="0.30" arrival="999.00" arrivalLane="b2[1][1][1]b_0" arrivalPos="325.74" arrivalSpeed="11.28" duration="332.00" routeLength="3087.45" waitingTime="44.00" waitingCount="3" stopTime="0.00" timeLoss="79.89" rerouteNo="0" devices="vehroute_23 tripinfo_23 fcd_23" vType="DEFAULT_VEHTYPE" speedFactor="0.89" vaporized=""/>
    <tripinfo id="26" depart="775.00" departLane="a72[1]_0" departPos="5.10" departSpeed="0.00" departDelay="0.27" arrival="1124.00" arrivalLane="b2[1][1][1]b_1" arrivalPos="325.74" arrivalSpeed="12.16" duration="349.00" routeLength="3084.49" waitingTime="54.00" waitingCount="5" stopTime="0.00" timeLoss="103.51" rerouteNo="0" devices="vehroute_26 tripinfo_26 fcd_26" vType="DEFAULT_VEHTYPE" speedFactor="0.92" vaporized=""/>
    <tripinfo id="25" depart="741.00" departLane="a72[1]_0" departPos="5.10" departSpeed="0.00" departDelay="0.53" arrival="1125.00" arrivalLane="b2[1][1][1]b_0" arrivalPos="325.74" arrivalSpeed="11.62" duration="384.00" routeLength="3088.98" waitingTime="79.00" waitingCount="7" stopTime="0.00" timeLoss="126.19" rerouteNo="0" devices="vehroute_25 tripinfo_25 fcd_25" vType="DEFAULT_VEHTYPE" speedFactor="0.87" vaporized=""/>
    <tripinfo id="24" depart="701.00" departLane="a72[1]_0" departPos="5.10" departSpeed="0.00" departDelay="0.36" arrival="1129.00" arrivalLane="b2[1][1][1]b_0" arrivalPos="325.74" arrivalSpeed="10.98" duration="428.00" routeLength="3087.45" waitingTime="116.00" waitingCount="3" stopTime="0.00" timeLoss="155.66" rerouteNo="0" devices="vehroute_24 tripinfo_24 fcd_24" vType="DEFAULT_VEHTYPE" speedFactor="0.83" vaporized=""/>
    <tripinfo id="30" depart="955.00" departLane="a72[1]_0" departPos="5.10" departSpeed="0.00" departDelay="0.83" arrival="1242.00" arrivalLane="b2[1][1][1]b_1" arrivalPos="325.74" arrivalSpeed="15.32" duration="287.00" routeLength="3087.45" waitingTime="53.00" waitingCount="2" stopTime="0.00" timeLoss="96.32" rerouteNo="0" devices="vehroute_30 tripinfo_30 fcd_30" vType="DEFAULT_VEHTYPE" speedFactor="1.18" vaporized=""/>
    <tripinfo id="28" depart="917.00" departLane="a72[1]_0" departPos="5.10" departSpeed="0.00" departDelay="0.19" arrival="1243.00" arrivalLane="b2[1][1][1]b_0" arrivalPos="325.74" arrivalSpeed="15.38" duration="326.00" routeLength="3087.45" waitingTime="83.00" waitingCount="3" stopTime="0.00" timeLoss="126.86" rerouteNo="0" devices="vehroute_28 tripinfo_28 fcd_28" vType="DEFAULT_VEHTYPE" speedFactor="1.13" vaporized=""/>
    <tripinfo id="29" depart="936.00" departLane="a72[1]_0" departPos="5.10" departSpeed="0.00" departDelay="0.67" arrival="1248.00" arrivalLane="b2[1][1][1]b_0" arrivalPos="325.74" arrivalSpeed="11.91" duration="312.00" routeLength="3087.45" waitingTime="35.00" waitingCount="3" stopTime="0.00" timeLoss="70.60" rerouteNo="0" devices="vehroute_29 tripinfo_29 fcd_29" vType="DEFAULT_VEHTYPE" speedFactor="0.93" vaporized=""/>
    <tripinfo id="27" depart="869.00" departLane="a72[1]_0" departPos="5.10" departSpeed="0.00" departDelay="0.67" arrival="1250.00" arrivalLane="b2[1][1][1]b_0" arrivalPos="325.74" arrivalSpeed="13.11" duration="381.00" routeLength="3088.98" waitingTime="96.00" waitingCount="6" stopTime="0.00" timeLoss="143.60" rerouteNo="0" devices="vehroute_27 tripinfo_27 fcd_27" vType="DEFAULT_VEHTYPE" speedFactor="0.95" vaporized=""/>
    <tripinfo id="31" depart="1064.00" departLane="a72[1]_0" departPos="5.10" departSpeed="0.00" departDelay="0.40" arrival="1367.00" arrivalLane="b2[1][1][1]b_0" arrivalPos="325.74" arrivalSpeed="15.24" duration="303.00" routeLength="3088.98" waitingTime="65.00" waitingCount="5" stopTime="0.00" timeLoss="107.87" rerouteNo="0" devices="vehroute_31 tripinfo_31 fcd_31" vType="DEFAULT_VEHTYPE" speedFactor="1.15" vaporized=""/>
    <tripinfo id="32" depart="1068.00" departLane="a72[1]_0" departPos="5.10" departSpeed="0.00" departDelay="0.47" arrival="1371.00" arrivalLane="b2[1][1][1]b_0" arrivalPos="325.74" arrivalSpeed="13.88" duration="303.00" routeLength="3087.45" waitingTime="38.00" waitingCount="3" stopTime="0.00" timeLoss="79.47" rerouteNo="0" devices="vehroute_32 tripinfo_32 fcd_32" vType="DEFAULT_VEHTYPE" speedFactor="1.01" vaporized=""/>
    <tripinfo id="33" depart="1103.00" departLane="a72[1]_0" departPos="5.10" departSpeed="0.00" departDelay="0.49" arrival="1493.00" arrivalLane="b2[1][1][1]b_0" arrivalPos="325.74" arrivalSpeed="15.62" duration="390.00" routeLength="3087.45" waitingTime="157.00" waitingCount="4" stopTime="0.00" timeLoss="198.04" rerouteNo="0" devices="vehroute_33 tripinfo_33 fcd_33" vType="DEFAULT_VEHTYPE" speedFactor="1.17" vaporized=""/>
    <tripinfo id="35" depart="1169.00" departLane="a72[1]_0" departPos="5.10" departSpeed="0.00" departDelay="0.17" arrival="1496.00" arrivalLane="b2[1][1][1]b_0" arrivalPos="325.74" arrivalSpeed="13.46" duration="327.00" routeLength="3084.49" waitingTime="56.00" waitingCount="6" stopTime="0.00" timeLoss="106.40" rerouteNo="0" devices="vehroute_35 tripinfo_35 fcd_35" vType="DEFAULT_VEHTYPE" speedFactor="1.02" vaporized=""/>
    <tripinfo id="34" depart="1136.00" departLane="a72[1]_0" departPos="5.10" departSpeed="0.00" departDelay="0.54" arrival="1499.00" arrivalLane="b2[1][1][1]b_0" arrivalPos="325.74" arrivalSpeed="12.86" duration="363.00" routeLength="3088.98" waitingTime="85.00" waitingCount="5" stopTime="0.00" timeLoss="136.42" rerouteNo="0" devices="vehroute_34 tripinfo_34 fcd_34" vType="DEFAULT_VEHTYPE" speedFactor="0.99" vaporized=""/>
    <tripinfo id="37" depart="1272.00" departLane="a72[1]_0" departPos="5.10" departSpeed="0.00" departDelay="0.29" arrival="1617.00" arrivalLane="b2[1][1][1]b_0" arrivalPos="325.74" arrivalSpeed="15.96" duration="345.00" routeLength="3091.94" waitingTime="115.00" waitingCount="4" stopTime="0.00" timeLoss="153.72" rerouteNo="0" devices="vehroute_37 tripinfo_37 fcd_37" vType="DEFAULT_VEHTYPE" speedFactor="1.18" vaporized=""/>
    <tripinfo id="38" depart="1324.00" departLane="a72[1]_0" departPos="5.10" departSpeed="0.00" departDelay="0.07" arrival="1619.00" arrivalLane="b2[1][1][1]b_1" arrivalPos="325.74" arrivalSpeed="15.14" duration="295.00" routeLength="3087.45" waitingTime="46.00" waitingCount="4" stopTime="0.00" timeLoss="91.10" rerouteNo="0" devices="vehroute_38 tripinfo_38 fcd_38" vType="DEFAULT_VEHTYPE" speedFactor="1.10" vaporized=""/>
    <tripinfo id="36" depart="1259.00" departLane="a72[1]_0" departPos="5.10" departSpeed="0.00" departDelay="0.07" arrival="1624.00" arrivalLane="b2[1][1][1]b_0" arrivalPos="325.74" arrivalSpeed="12.66" duration="365.00" routeLength="3084.49" waitingTime="86.00" waitingCount="6" stopTime="0.00" timeLoss="133.70" rerouteNo="0" devices="vehroute_36 tripinfo_36 fcd_36" vType="DEFAULT_VEHTYPE" speedFactor="0.97" vaporized=""/>
    <tripinfo id="40" depart="1375.00" departLane="a72[1]_0" departPos="5.10" departSpeed="0.00" departDelay="0.02" arrival="1745.00" arrivalLane="b2[1][1][1]b_0" arrivalPos="325.74" arrivalSpeed="14.04" duration="370.00" routeLength="3087.45" waitingTime="109.00" waitingCount="4" stopTime="0.00" timeLoss="151.59" rerouteNo="0" devices="vehroute_40 tripinfo_40 fcd_40" vType="DEFAULT_VEHTYPE" speedFactor="1.03" vaporized=""/>
    <tripinfo id="39" depart="1354.00" departLane="a72[1]_0" departPos="5.10" departSpeed="0.00" departDelay="0.80" arrival="1750.00" arrivalLane="b2[1][1][1]b_0" arrivalPos="325.74" arrivalSpeed="11.54" duration="396.00" routeLength="3091.94" waitingTime="106.00" waitingCount="4" stopTime="0.00" timeLoss="145.44" rerouteNo="0" devices="vehroute_39 tripinfo_39 fcd_39" vType="DEFAULT_VEHTYPE" speedFactor="0.90" vaporized=""/>
    <tripinfo id="42" depart="1491.00" departLane="a72[1]_0" departPos="5.10" departSpeed="0.00" departDelay="0.13" arrival="1869.00" arrivalLane="b2[1][1][1]b_0" arrivalPos="325.74" arrivalSpeed="14.91" duration="378.00" routeLength="3088.98" waitingTime="127.00" waitingCount="4" stopTime="0.00" timeLoss="171.84" rerouteNo="0" devices="vehroute_42 tripinfo_42 fcd_42" vType="DEFAULT_VEHTYPE" speedFactor="1.09" vaporized=""/>
    <tripinfo id="43" depart="1499.00" departLane="a72[1]_0" departPos="5.10" departSpeed="0.00" departDelay="0.85" arrival="1870.00" arrivalLane="b2[1][1][1]b_1" arrivalPos="325.74" arrivalSpeed="13.34" duration="371.00" routeLength="3084.49" waitingTime="107.00" waitingCount="3" stopTime="0.00" timeLoss="154.67" rerouteNo="0" devices="vehroute_43 tripinfo_43 fcd_43" vType="DEFAULT_VEHTYPE" speedFactor="1.04" vaporized=""/>
    <tripinfo id="41" depart="1421.00" departLane="a72[1]_0" departPos="5.10" departSpeed="0.00" departDelay="0.89" arrival="1872.00" arrivalLane="b2[1][1][1]b_1" arrivalPos="325.74" arrivalSpeed="12.82" duration="451.00" routeLength="3087.45" waitingTime="169.00" waitingCount="3" stopTime="0.00" timeLoss="216.25" rerouteNo="0" devices="vehroute_41 tripinfo_41 fcd_41" vType="DEFAULT_VEHTYPE" speedFactor="0.96" vaporized=""/>
    <tripinfo id="44" depart="1534.00" departLane="a72[1]_0" departPos="5.10" departSpeed="0.00" departDelay="0.10" arrival="1872.00" arrivalLane="b2[1][1][1]b_0" arrivalPos="325.74" arrivalSpeed="13.32" duration="338.00" routeLength="3087.45" waitingTime="88.00" waitingCount="3" stopTime="0.00" timeLoss="122.30" rerouteNo="0" devices="vehroute_44 tripinfo_44 fcd_44" vType="DEFAULT_VEHTYPE" speedFactor="1.04" vaporized=""/>
    <tripinfo id="45" depart="1576.00" departLane="a72[1]_0" departPos="5.10" departSpeed="0.00" departDelay="0.63" arrival="1994.00" arrivalLane="b2[1][1][1]b_0" arrivalPos="325.74" arrivalSpeed="14.02" duration="418.00" routeLength="3088.98" waitingTime="150.00" waitingCount="6" stopTime="0.00" timeLoss="211.24" rerouteNo="0" devices="vehroute_45 tripinfo_45 fcd_45" vType="DEFAULT_VEHTYPE" speedFactor="1.09" vaporized=""/>
    <tripinfo id="46" depart="1620.00" departLane="a72[1]_0" departPos="5.10" departSpeed="0.00" departDelay="0.78" arrival="1996.00" arrivalLane="b2[1][1][1]b_0" arrivalPos="325.74" arrivalSpeed="13.14" duration="376.00" routeLength="3084.49" waitingTime="113.00" waitingCount="4" stopTime="0.00" timeLoss="151.46" rerouteNo="0" devices="vehroute_46 tripinfo_46 fcd_46" vType="DEFAULT_VEHTYPE" speedFactor="1.00" vaporized=""/>
    <tripinfo id="48" depart="1655.00" departLane="a72[1]_0" departPos="5.10" departSpeed="0.00" departDelay="0.99" arrival="2001.00" arrivalLane="b2[1][1][1]b_1" arrivalPos="325.74" arrivalSpeed="11.71" duration="346.00" routeLength="3087.45" waitingTime="57.00" waitingCount="2" stopTime="0.00" timeLoss="88.73" rerouteNo="0" devices="vehroute_48 tripinfo_48 fcd_48" vType="DEFAULT_VEHTYPE" speedFactor="0.88" vaporized=""/>
    <tripinfo id="47" depart="1636.00" departLane="a72[1]_0" departPos="5.10" departSpeed="0.00" departDelay="0.24" arrival="2002.00" arrivalLane="b2[1][1][1]b_0" arrivalPos="325.74" arrivalSpeed="11.79" duration="366.00" routeLength="3087.45" waitingTime="81.00" waitingCount="2" stopTime="0.00" timeLoss="115.87" rerouteNo="0" devices="vehroute_47 tripinfo_47 fcd_47" vType="DEFAULT_VEHTYPE" speedFactor="0.90" vaporized=""/>
    <tripinfo id="51" depart="1733.00" departLane="a72[1]_0" departPos="5.10" departSpeed="0.00" departDelay="0.16" arrival="2078.00" arrivalLane="b2[1][1][1]b_0" arrivalPos="325.74" arrivalSpeed="15.33" duration="345.00" routeLength="3084.49" waitingTime="95.00" waitingCount="3" stopTime="0.00" timeLoss="152.06" rerouteNo="0" devices="vehroute_51 tripinfo_51 fcd_51" vType="DEFAULT_VEHTYPE" speedFactor="1.17" vaporized=""/>
    <tripinfo id="53" depart="1760.00" departLane="a72[1]_0" departPos="5.10" departSpeed="0.00" departDelay="2.33" arrival="2119.00" arrivalLane="b2[1][1][1]b_0" arrivalPos="325.74" arrivalSpeed="13.95" duration="359.00" routeLength="3087.45" waitingTime="117.00" waitingCount="3" stopTime="0.00" timeLoss="153.90" rerouteNo="0" devices="vehroute_53 tripinfo_53 fcd_53" vType="DEFAULT_VEHTYPE" speedFactor="1.10" vaporized=""/>
    <tripinfo id="52" depart="1757.00" departLane="a72[1]_0" departPos="5.10" departSpeed="0.00" departDelay="0.73" arrival="2121.00" arrivalLane="b2[1][1][1]b_1" arrivalPos="325.74" arrivalSpeed="14.03" duration="364.00" routeLength="3087.45" waitingTime="107.00" waitingCount="3" stopTime="0.00" timeLoss="143.05" rerouteNo="0" devices="vehroute_52 tripinfo_52 fcd_52" vType="DEFAULT_VEHTYPE" speedFactor="1.02" vaporized=""/>
    <tripinfo id="49" depart="1662.00" departLane="a72[1]_0" departPos="5.10" departSpeed="0.00" departDelay="0.68" arrival="2127.00" arrivalLane="b2[1][1][1]b_0" arrivalPos="325.74" arrivalSpeed="10.86" duration="465.00" routeLength="3088.98" waitingTime="140.00" waitingCount="5" stopTime="0.00" timeLoss="199.45" rerouteNo="0" devices="vehroute_49 tripinfo_49 fcd_49" vType="DEFAULT_VEHTYPE" speedFactor="0.85" vaporized=""/>
    <tripinfo id="50" depart="1714.00" departLane="a72[1]_0" departPos="5.10" departSpeed="0.00" departDelay="0.33" arrival="2128.00" arrivalLane="b2[1][1][1]b_1" arrivalPos="325.74" arrivalSpeed="11.76" duration="414.00" routeLength="3084.49" waitingTime="101.00" waitingCount="3" stopTime="0.00" timeLoss="151.54" rerouteNo="0" devices="vehroute_50 tripinfo_50 fcd_50" vType="DEFAULT_VEHTYPE" speedFactor="0.85" vaporized=""/>
    <tripinfo id="57" depart="1898.00" departLane="a72[1]_0" departPos="5.10" departSpeed="0.00" departDelay="0.65" arrival="2202.00" arrivalLane="b2[1][1][1]b_0" arrivalPos="325.74" arrivalSpeed="15.79" duration="304.00" routeLength="3087.45" waitingTime="68.00" waitingCount="2" stopTime="0.00" timeLoss="107.54" rerouteNo="0" devices="vehroute_57 tripinfo_57 fcd_57" vType="DEFAULT_VEHTYPE" speedFactor="1.14" vaporized=""/>
    <tripinfo id="54" depart="1834.00" departLane="a72[1]_0" departPos="5.10" departSpeed="0.00" departDelay="0.08" arrival="2246.00" arrivalLane="b2[1][1][1]b_0" arrivalPos="325.74" arrivalSpeed="13.33" duration="412.00" routeLength="3088.98" waitingTime="138.00" waitingCount="5" stopTime="0.00" timeLoss="187.99" rerouteNo="0" devices="vehroute_54 tripinfo_54 fcd_54" vType="DEFAULT_VEHTYPE" speedFactor="1.00" vaporized=""/>
    <tripinfo id="55" depart="1844.00" departLane="a72[1]_0" departPos="5.10" departSpeed="0.00" departDelay="0.00" arrival="2246.00" arrivalLane="b2[1][1][1]b_1" arrivalPos="325.74" arrivalSpeed="12.80" duration="402.00" routeLength="3084.49" waitingTime="118.00" waitingCount="5" stopTime="0.00" timeLoss="176.45" rerouteNo="0" devices="vehroute_55 tripinfo_55 fcd_55" vType="DEFAULT_VEHTYPE" speedFactor="1.00" vaporized=""/>
    <tripinfo id="56" depart="1867.00" departLane="a72[1]_0" departPos="5.10" departSpeed="0.00" departDelay="0.73" arrival="2252.00" arrivalLane="b2[1][1][1]b_0" arrivalPos="325.74" arrivalSpeed="11.86" duration="385.00" routeLength="3087.45" waitingTime="96.00" waitingCount="3" stopTime="0.00" timeLoss="134.62" rerouteNo="0" devices="vehroute_56 tripinfo_56 fcd_56" vType="DEFAULT_VEHTYPE" speedFactor="0.90" vaporized=""/>
    <tripinfo id="58" depart="1928.00" departLane="a72[1]_0" departPos="5.10" departSpeed="0.00" departDelay="0.88" arrival="2332.00" arrivalLane="b2[1][1][1]b_0" arrivalPos="325.74" arrivalSpeed="12.93" duration="404.00" routeLength="3088.98" waitingTime="138.00" waitingCount="5" stopTime="0.00" timeLoss="184.03" rerouteNo="0" devices="vehroute_58 tripinfo_58 fcd_58" vType="DEFAULT_VEHTYPE" speedFactor="1.02" vaporized=""/>
    <tripinfo id="59" depart="1973.00" departLane="a72[1]_0" departPos="5.10" departSpeed="0.00" departDelay="0.35" arrival="2372.00" arrivalLane="b2[1][1][1]b_0" arrivalPos="325.74" arrivalSpeed="13.12" duration="399.00" routeLength="3084.49" waitingTime="125.00" waitingCount="4" stopTime="0.00" timeLoss="166.61" rerouteNo="0" devices="vehroute_59 tripinfo_59 fcd_59" vType="DEFAULT_VEHTYPE" speedFactor="0.97" vaporized=""/>
    <tripinfo id="60" depart="2211.00" departLane="a72[1]_0" departPos="5.10" departSpeed="0.00" departDelay="0.84" arrival="2452.00" arrivalLane="b2[1][1][1]b_0" arrivalPos="325.74" arrivalSpeed="14.95" duration="241.00" routeLength="3087.45" waitingTime="4.00" waitingCount="2" stopTime="0.00" timeLoss="33.18" rerouteNo="0" devices="vehroute_60 tripinfo_60 fcd_60" vType="DEFAULT_VEHTYPE" speedFactor="1.08" vaporized=""/>
    <tripinfo id="61" depart="2215.00" departLane="a72[1]_0" departPos="5.10" departSpeed="0.00" departDelay="0.95" arrival="2572.00" arrivalLane="b2[1][1][1]b_0" arrivalPos="325.74" arrivalSpeed="14.26" duration="357.00" routeLength="3088.98" waitingTime="113.00" waitingCount="4" stopTime="0.00" timeLoss="156.10" rerouteNo="0" devices="vehroute_61 tripinfo_61 fcd_61" vType="DEFAULT_VEHTYPE" speedFactor="1.12" vaporized=""/>
    <tripinfo id="62" depart="2218.00" departLane="a72[1]_0" departPos="5.10" departSpeed="0.00" departDelay="3.21" arrival="2579.00" arrivalLane="b2[1][1][1]b_0" arrivalPos="325.74" arrivalSpeed="13.75" duration="361.00" routeLength="3084.49" waitingTime="91.00" waitingCount="5" stopTime="0.00" timeLoss="139.95" rerouteNo="0" devices="vehroute_62 tripinfo_62 fcd_62" vType="DEFAULT_VEHTYPE" speedFactor="1.02" vaporized=""/>
    <tripinfo id="63" depart="2247.00" departLane="a72[1]_0" departPos="5.10" departSpeed="0.00" departDelay="0.97" arrival="2582.00" arrivalLane="b2[1][1][1]b_0" arrivalPos="325.74" arrivalSpeed="12.73" duration="335.00" routeLength="3084.49" waitingTime="64.00" waitingCount="3" stopTime="0.00" timeLoss="106.90" rerouteNo="0" devices="vehroute_63 tripinfo_63 fcd_63" vType="DEFAULT_VEHTYPE" speedFactor="0.99" vaporized=""/>
    <tripinfo id="64" depart="2250.00" departLane="a72[1]_0" departPos="5.10" departSpeed="0.00" departDelay="1.21" arrival="2587.00" arrivalLane="b2[1][1][1]b_0" arrivalPos="325.74" arrivalSpeed="12.80" duration="337.00" routeLength="3084.49" waitingTime="54.00" waitingCount="2" stopTime="0.00" timeLoss="96.61" rerouteNo="0" devices="vehroute_64 tripinfo_64 fcd_64" vType="DEFAULT_VEHTYPE" speedFactor="0.94" vaporized=""/>
    <tripinfo id="68" depart="2378.00" departLane="a72[1]_0" departPos="5.10" departSpeed="0.00" departDelay="0.91" arrival="2700.00" arrivalLane="b2[1][1][1]b_0" arrivalPos="325.74" arrivalSpeed="13.30" duration="322.00" routeLength="3087.45" waitingTime="53.00" waitingCount="4" stopTime="0.00" timeLoss="106.06" rerouteNo="0" devices="vehroute_68 tripinfo_68 fcd_68" vType="DEFAULT_VEHTYPE" speedFactor="1.04" vaporized=""/>