<?xml version="1.0" encoding="UTF-8"?>

<!-- generated on 2025-03-21 18:04:26 by Eclipse SUMO sumo Version 1.21.0
<sumoConfiguration xmlns:xsi="http://www.w3.org/2001/XMLSchema-instance" xsi:noNamespaceSchemaLocation="http://sumo.dlr.de/xsd/sumoConfiguration.xsd">

    <input>
        <net-file value="${STATICPATH}/joined_lanes.net.xml"/>
        <route-files value="${SIMULATIONPATH}/generatedRoutes.rou.xml"/>
        <additional-files value="${STATICPATH}/detectors.add.xml,${STATICPATH}/joined_vtypes.add.xml,${STATICPATH}/joined_tls.add.xml"/>
    </input>

    <output>
        <fcd-output value="${SIMULATIONPATH}/fcd.xml"/>
        <queue-output value="${SIMULATIONPATH}/queue.xml"/>
        <summary-output value="${SIMULATIONPATH}/summary.xml"/>
        <tripinfo-output value="${SIMULATIONPATH}/tripinfos.xml"/>
        <vehroute-output value="${SIMULATIONPATH}/vehroute.xml"/>
        <save-state.prefix value="configs\state"/>
    </output>

    <processing>
        <ignore-junction-blocker value="1"/>
        <ignore-route-errors value="true"/>
        <time-to-teleport value="-1"/>
    </processing>

    <report>
        <log value="C:/Users/fabio/Desktop/sumo_log.txt"/>
        <no-step-log value="true"/>
    </report>

    <emissions>
        <phemlight-path value="configs\./PHEMlight/"/>
    </emissions>

    <traci_server>
        <remote-port value="60293"/>
    </traci_server>

</sumoConfiguration>
-->

<tripinfos xmlns:xsi="http://www.w3.org/2001/XMLSchema-instance" xsi:noNamespaceSchemaLocation="http://sumo.dlr.de/xsd/tripinfo_file.xsd">
    <tripinfo id="0" depart="5.00" departLane="a16_0" departPos="5.10" departSpeed="0.00" departDelay="0.55" arrival="330.00" arrivalLane="b3[1]_0" arrivalPos="172.58" arrivalSpeed="14.11" duration="325.00" routeLength="3128.64" waitingTime="53.00" waitingCount="6" stopTime="0.00" timeLoss="108.41" rerouteNo="0" devices="vehroute_0 tripinfo_0 fcd_0" vType="DEFAULT_VEHTYPE" speedFactor="1.06" vaporized=""/>
    <tripinfo id="1" depart="73.00" departLane="a16_0" departPos="5.10" departSpeed="0.00" departDelay="0.91" arrival="477.00" arrivalLane="b3[1]_0" arrivalPos="172.58" arrivalSpeed="12.64" duration="404.00" routeLength="3128.64" waitingTime="93.00" waitingCount="5" stopTime="0.00" timeLoss="157.98" rerouteNo="0" devices="vehroute_1 tripinfo_1 fcd_1" vType="DEFAULT_VEHTYPE" speedFactor="0.94" vaporized=""/>
    <tripinfo id="2" depart="83.00" departLane="a201_0" departPos="5.10" departSpeed="0.00" departDelay="0.58" arrival="517.00" arrivalLane="a171_0" arrivalPos="173.84" arrivalSpeed="13.86" duration="434.00" routeLength="2793.76" waitingTime="190.00" waitingCount="4" stopTime="0.00" timeLoss="230.90" rerouteNo="0" devices="vehroute_2 tripinfo_2 fcd_2" vType="DEFAULT_VEHTYPE" speedFactor="1.01" vaporized=""/>
    <tripinfo id="3" depart="189.00" departLane="a16_0" departPos="5.10" departSpeed="0.00" departDelay="0.58" arrival="631.00" arrivalLane="b3[1]_0" arrivalPos="172.58" arrivalSpeed="14.90" duration="442.00" routeLength="3128.64" waitingTime="161.00" waitingCount="8" stopTime="0.00" timeLoss="229.34" rerouteNo="0" devices="vehroute_3 tripinfo_3 fcd_3" vType="DEFAULT_VEHTYPE" speedFactor="1.08" vaporized=""/>
    <tripinfo id="5" depart="252.00" departLane="a201_0" departPos="5.10" departSpeed="0.00" departDelay="0.25" arrival="658.00" arrivalLane="a171_0" arrivalPos="173.84" arrivalSpeed="11.22" duration="406.00" routeLength="2796.72" waitingTime="127.00" waitingCount="2" stopTime="0.00" timeLoss="159.14" rerouteNo="0" devices="vehroute_5 tripinfo_5 fcd_5" vType="DEFAULT_VEHTYPE" speedFactor="0.83" vaporized=""/>
    <tripinfo id="7" depart="320.00" departLane="a201_0" departPos="5.10" departSpeed="0.00" departDelay="0.44" arrival="660.00" arrivalLane="a171_0" arrivalPos="173.84" arrivalSpeed="11.53" duration="340.00" routeLength="2796.72" waitingTime="67.00" waitingCount="3" stopTime="0.00" timeLoss="108.96" rerouteNo="0" devices="vehroute_7 tripinfo_7 fcd_7" vType="DEFAULT_VEHTYPE" speedFactor="0.89" vaporized=""/>
    <tripinfo id="4" depart="228.00" departLane="a16_0" departPos="5.10" departSpeed="0.00" departDelay="0.81" arrival="682.00" arrivalLane="b3[1]_0" arrivalPos="172.58" arrivalSpeed="13.26" duration="454.00" routeLength="3128.64" waitingTime="176.00" waitingCount="6" stopTime="0.00" timeLoss="230.90" rerouteNo="0" devices="vehroute_4 tripinfo_4 fcd_4" vType="DEFAULT_VEHTYPE" speedFactor="1.03" vaporized=""/>
    <tripinfo id="6" depart="288.00" departLane="a16_0" departPos="5.10" departSpeed="0.00" departDelay="0.12" arrival="684.00" arrivalLane="b3[1]_1" arrivalPos="172.58" arrivalSpeed="13.46" duration="396.00" routeLength="3123.39" waitingTime="109.00" waitingCount="5" stopTime="0.00" timeLoss="174.81" rerouteNo="0" devices="vehroute_6 tripinfo_6 fcd_6" vType="DEFAULT_VEHTYPE" speedFactor="1.05" vaporized=""/>
    <tripinfo id="10" depart="432.00" departLane="a201_0" departPos="5.10" departSpeed="0.00" departDelay="0.62" arrival="757.00" arrivalLane="a171_0" arrivalPos="173.84" arrivalSpeed="14.78" duration="325.00" routeLength="2796.72" waitingTime="98.00" waitingCount="3" stopTime="0.00" timeLoss="137.26" rerouteNo="0" devices="vehroute_10 tripinfo_10 fcd_10" vType="DEFAULT_VEHTYPE" speedFactor="1.09" vaporized=""/>
    <tripinfo id="8" depart="335.00" departLane="a16_0" departPos="5.10" departSpeed="0.00" departDelay="0.46" arrival="771.00" arrivalLane="b3[1]_0" arrivalPos="172.58" arrivalSpeed="12.05" duration="436.00" routeLength="3128.64" waitingTime="125.00" waitingCount="7" stopTime="0.00" timeLoss="190.49" rerouteNo="0" devices="vehroute_8 tripinfo_8 fcd_8" vType="DEFAULT_VEHTYPE" speedFactor="0.94" vaporized=""/>
    <tripinfo id="11" depart="439.00" departLane="a16_0" departPos="5.10" departSpeed="0.00" departDelay="0.66" arrival="811.00" arrivalLane="b3[1]_0" arrivalPos="172.58" arrivalSpeed="13.49" duration="372.00" routeLength="3128.64" waitingTime="73.00" waitingCount="5" stopTime="0.00" timeLoss="147.20" rerouteNo="0" devices="vehroute_11 tripinfo_11 fcd_11" vType="DEFAULT_VEHTYPE" speedFactor="1.03" vaporized=""/>
    <tripinfo id="12" depart="502.00" departLane="a16_0" departPos="5.10" departSpeed="0.00" departDelay="0.89" arrival="812.00" arrivalLane="b3[1]_1" arrivalPos="172.58" arrivalSpeed="13.47" duration="310.00" routeLength="3123.39" waitingTime="28.00" waitingCount="3" stopTime="0.00" timeLoss="89.85" rerouteNo="0" devices="vehroute_12 tripinfo_12 fcd_12" vType="DEFAULT_VEHTYPE" speedFactor="1.05" vaporized=""/>
    <tripinfo id="9" depart="424.00" departLane="a16_0" departPos="5.10" departSpeed="0.00" departDelay="0.46" arrival="825.00" arrivalLane="b3[1]_0" arrivalPos="172.58" arrivalSpeed="10.64" duration="401.00" routeLength="3128.64" waitingTime="79.00" waitingCount="5" stopTime="0.00" timeLoss="132.14" rerouteNo="0" devices="vehroute_9 tripinfo_9 fcd_9" vType="DEFAULT_VEHTYPE" speedFactor="0.86" vaporized=""/>
    <tripinfo id="14" depart="554.00" departLane="a201_0" departPos="5.10" departSpeed="0.00" departDelay="0.35" arrival="887.00" arrivalLane="a171_0" arrivalPos="173.84" arrivalSpeed="13.21" duration="333.00" routeLength="2793.76" waitingTime="86.00" waitingCount="4" stopTime="0.00" timeLoss="127.07" rerouteNo="0" devices="vehroute_14 tripinfo_14 fcd_14" vType="DEFAULT_VEHTYPE" speedFactor="0.99" vaporized=""/>
    <tripinfo id="17" depart="614.00" departLane="a201_0" departPos="5.10" departSpeed="0.00" departDelay="0.28" arrival="894.00" arrivalLane="a171_0" arrivalPos="173.84" arrivalSpeed="12.58" duration="280.00" routeLength="2796.72" waitingTime="29.00" waitingCount="2" stopTime="0.00" timeLoss="61.89" rerouteNo="0" devices="vehroute_17 tripinfo_17 fcd_17" vType="DEFAULT_VEHTYPE" speedFactor="0.94" vaporized=""/>
    <tripinfo id="13" depart="509.00" departLane="a16_0" departPos="5.10" departSpeed="0.00" departDelay="0.40" arrival="955.00" arrivalLane="b3[1]_0" arrivalPos="172.58" arrivalSpeed="15.41" duration="446.00" routeLength="3128.64" waitingTime="181.00" waitingCount="6" stopTime="0.00" timeLoss="241.47" rerouteNo="0" devices="vehroute_13 tripinfo_13 fcd_13" vType="DEFAULT_VEHTYPE" speedFactor="1.12" vaporized=""/>
    <tripinfo id="15" depart="574.00" departLane="a16_0" departPos="5.10" departSpeed="0.00" departDelay="0.51" arrival="964.00" arrivalLane="b3[1]_0" arrivalPos="172.58" arrivalSpeed="11.89" duration="390.00" routeLength="3128.64" waitingTime="92.00" waitingCount="4" stopTime="0.00" timeLoss="141.89" rerouteNo="0" devices="vehroute_15 tripinfo_15 fcd_15" vType="DEFAULT_VEHTYPE" speedFactor="0.93" vaporized=""/>
    <tripinfo id="16" depart="583.00" departLane="a16_0" departPos="5.10" departSpeed="0.00" departDelay="0.65" arrival="968.00" arrivalLane="b3[1]_0" arrivalPos="172.58" arrivalSpeed="11.28" duration="385.00" routeLength="3128.64" waitingTime="76.00" waitingCount="3" stopTime="0.00" timeLoss="121.60" rerouteNo="0" devices="vehroute_16 tripinfo_16 fcd_16" vType="DEFAULT_VEHTYPE" speedFactor="0.88" vaporized=""/>
    <tripinfo id="18" depart="686.00" departLane="a201_0" departPos="5.10" departSpeed="0.00" departDelay="0.83" arrival="1016.00" arrivalLane="a171_0" arrivalPos="173.84" arrivalSpeed="12.73" duration="330.00" routeLength="2793.76" waitingTime="75.00" waitingCount="3" stopTime="0.00" timeLoss="112.10" rerouteNo="0" devices="vehroute_18 tripinfo_18 fcd_18" vType="DEFAULT_VEHTYPE" speedFactor="0.94" vaporized=""/>
    <tripinfo id="19" depart="764.00" departLane="a201_0" departPos="5.10" departSpeed="0.00" departDelay="0.86" arrival="1121.00" arrivalLane="a171_0" arrivalPos="173.84" arrivalSpeed="15.27" duration="357.00" routeLength="2796.72" waitingTime="138.00" waitingCount="4" stopTime="0.00" timeLoss="180.58" rerouteNo="0" devices="vehroute_19 tripinfo_19 fcd_19" vType="DEFAULT_VEHTYPE" speedFactor="1.16" vaporized=""/>
    <tripinfo id="20" depart="806.00" departLane="a201_0" departPos="5.10" departSpeed="0.00" departDelay="0.99" arrival="1181.00" arrivalLane="a171_0" arrivalPos="173.84" arrivalSpeed="14.05" duration="375.00" routeLength="2790.54" waitingTime="130.00" waitingCount="4" stopTime="0.00" timeLoss="172.95" rerouteNo="0" devices="vehroute_20 tripinfo_20 fcd_20" vType="DEFAULT_VEHTYPE" speedFactor="1.02" vaporized=""/>
    <tripinfo id="21" depart="819.00" departLane="a201_0" departPos="5.10" departSpeed="0.00" departDelay="0.51" arrival="1184.00" arrivalLane="a171_0" arrivalPos="173.84" arrivalSpeed="14.00" duration="365.00" routeLength="2793.76" waitingTime="114.00" waitingCount="4" stopTime="0.00" timeLoss="162.01" rerouteNo="0" devices="vehroute_21 tripinfo_21 fcd_21" vType="DEFAULT_VEHTYPE" speedFactor="1.01" vaporized=""/>
    <tripinfo id="22" depart="831.00" departLane="a201_0" departPos="5.10" departSpeed="0.00" departDelay="0.01" arrival="1187.00" arrivalLane="a171_0" arrivalPos="173.84" arrivalSpeed="12.33" duration="356.00" routeLength="2793.50" waitingTime="95.00" waitingCount="4" stopTime="0.00" timeLoss="146.00" rerouteNo="0" devices="vehroute_22 tripinfo_22 fcd_22" vType="DEFAULT_VEHTYPE" speedFactor="0.97" vaporized=""/>
    <tripinfo id="23" depart="838.00" departLane="a201_0" departPos="5.10" departSpeed="0.00" departDelay="0.82" arrival="1191.00" arrivalLane="a171_0" arrivalPos="173.84" arrivalSpeed="11.34" duration="353.00" routeLength="2793.76" waitingTime="76.00" waitingCount="3" stopTime="0.00" timeLoss="122.80" rerouteNo="0" devices="vehroute_23 tripinfo_23 fcd_23" vType="DEFAULT_VEHTYPE" speedFactor="0.89" vaporized=""/>
    <tripinfo id="24" depart="861.00" departLane="a16_0" departPos="5.10" departSpeed="0.00" departDelay="0.40" arrival="1201.00" arrivalLane="b3[1]_0" arrivalPos="172.58" arrivalSpeed="10.20" duration="340.00" routeLength="3128.64" waitingTime="15.00" waitingCount="3" stopTime="0.00" timeLoss="61.04" rerouteNo="0" devices="vehroute_24 tripinfo_24 fcd_24" vType="DEFAULT_VEHTYPE" speedFactor="0.83" vaporized=""/>
    <tripinfo id="25" depart="878.00" departLane="a16_0" departPos="5.10" departSpeed="0.00" departDelay="0.84" arrival="1224.00" arrivalLane="b3[1]_0" arrivalPos="172.58" arrivalSpeed="12.10" duration="346.00" routeLength="3128.64" waitingTime="27.00" waitingCount="3" stopTime="0.00" timeLoss="81.24" rerouteNo="0" devices="vehroute_25 tripinfo_25 fcd_25" vType="DEFAULT_VEHTYPE" speedFactor="0.87" vaporized=""/>
    <tripinfo id="27" depart="977.00" departLane="a201_0" departPos="5.10" departSpeed="0.00" departDelay="0.87" arrival="1276.00" arrivalLane="a171_0" arrivalPos="173.84" arrivalSpeed="12.46" duration="299.00" routeLength="2793.76" waitingTime="50.00" waitingCount="3" stopTime="0.00" timeLoss="83.72" rerouteNo="0" devices="vehroute_27 tripinfo_27 fcd_27" vType="DEFAULT_VEHTYPE" speedFactor="0.95" vaporized=""/>
    <tripinfo id="26" depart="926.00" departLane="a201_0" departPos="5.10" departSpeed="0.00" departDelay="0.63" arrival="1279.00" arrivalLane="a171_0" arrivalPos="173.84" arrivalSpeed="12.22" duration="353.00" routeLength="2796.72" waitingTime="85.00" waitingCount="4" stopTime="0.00" timeLoss="129.56" rerouteNo="0" devices="vehroute_26 tripinfo_26 fcd_26" vType="DEFAULT_VEHTYPE" speedFactor="0.92" vaporized=""/>
    <tripinfo id="28" depart="1007.00" departLane="a201_0" departPos="5.10" departSpeed="0.00" departDelay="0.07" arrival="1369.00" arrivalLane="a171_0" arrivalPos="173.84" arrivalSpeed="15.24" duration="362.00" routeLength="2793.76" waitingTime="124.00" waitingCount="4" stopTime="0.00" timeLoss="181.99" rerouteNo="0" devices="vehroute_28 tripinfo_28 fcd_28" vType="DEFAULT_VEHTYPE" speedFactor="1.13" vaporized=""/>
    <tripinfo id="30" depart="1130.00" departLane="a201_0" departPos="5.10" departSpeed="0.00" departDelay="0.58" arrival="1372.00" arrivalLane="a171_0" arrivalPos="173.84" arrivalSpeed="15.76" duration="242.00" routeLength="2793.76" waitingTime="23.00" waitingCount="2" stopTime="0.00" timeLoss="68.88" rerouteNo="0" devices="vehroute_30 tripinfo_30 fcd_30" vType="DEFAULT_VEHTYPE" speedFactor="1.18" vaporized=""/>
    <tripinfo id="31" depart="1144.00" departLane="a201_0" departPos="5.10" departSpeed="0.00" departDelay="0.89" arrival="1375.00" arrivalLane="a171_0" arrivalPos="173.84" arrivalSpeed="15.60" duration="231.00" routeLength="2793.50" waitingTime="7.00" waitingCount="2" stopTime="0.00" timeLoss="54.06" rerouteNo="0" devices="vehroute_31 tripinfo_31 fcd_31" vType="DEFAULT_VEHTYPE" speedFactor="1.15" vaporized=""/>
    <tripinfo id="34" depart="1231.00" departLane="a201_0" departPos="5.10" departSpeed="0.00" departDelay="0.97" arrival="1515.00" arrivalLane="a171_0" arrivalPos="173.84" arrivalSpeed="13.21" duration="284.00" routeLength="2793.76" waitingTime="40.00" waitingCount="3" stopTime="0.00" timeLoss="77.91" rerouteNo="0" devices="vehroute_34 tripinfo_34 fcd_34" vType="DEFAULT_VEHTYPE" speedFactor="0.99" vaporized=""/>
    <tripinfo id="33" depart="1201.00" departLane="a16_0" departPos="5.10" departSpeed="0.00" departDelay="0.15" arrival="1597.00" arrivalLane="b3[1]_1" arrivalPos="172.58" arrivalSpeed="15.34" duration="396.00" routeLength="3123.39" waitingTime="114.00" waitingCount="6" stopTime="0.00" timeLoss="199.64" rerouteNo="0" devices="vehroute_33 tripinfo_33 fcd_33" vType="DEFAULT_VEHTYPE" speedFactor="1.17" vaporized=""/>
    <tripinfo id="32" depart="1162.00" departLane="a16_0" departPos="5.10" departSpeed="0.00" departDelay="0.90" arrival="1601.00" arrivalLane="b3[1]_0" arrivalPos="172.58" arrivalSpeed="13.30" duration="439.00" routeLength="3128.64" waitingTime="152.00" waitingCount="5" stopTime="0.00" timeLoss="209.33" rerouteNo="0" devices="vehroute_32 tripinfo_32 fcd_32" vType="DEFAULT_VEHTYPE" speedFactor="1.01" vaporized=""/>
    <tripinfo id="35" depart="1237.00" departLane="a16_0" departPos="5.10" departSpeed="0.00" departDelay="0.18" arrival="1603.00" arrivalLane="b3[1]_1" arrivalPos="172.58" arrivalSpeed="13.47" duration="366.00" routeLength="3123.39" waitingTime="72.00" waitingCount="5" stopTime="0.00" timeLoss="139.66" rerouteNo="0" devices="vehroute_35 tripinfo_35 fcd_35" vType="DEFAULT_VEHTYPE" speedFactor="1.02" vaporized=""/>
    <tripinfo id="29" depart="1084.00" departLane="a16_0" departPos="5.10" departSpeed="0.00" departDelay="0.93" arrival="1605.00" arrivalLane="b3[1]_0" arrivalPos="172.58" arrivalSpeed="12.65" duration="521.00" routeLength="3128.64" waitingTime="211.00" waitingCount="7" stopTime="0.00" timeLoss="274.04" rerouteNo="0" devices="vehroute_29 tripinfo_29 fcd_29" vType="DEFAULT_VEHTYPE" speedFactor="0.93" vaporized=""/>
    <tripinfo id="36" depart="1247.00" departLane="a201_0" departPos="5.10" departSpeed="0.00" departDelay="0.24" arrival="1626.00" arrivalLane="a171_0" arrivalPos="173.84" arrivalSpeed="13.24" duration="379.00" routeLength="2796.72" waitingTime="132.00" waitingCount="3" stopTime="0.00" timeLoss="169.67" rerouteNo="0" devices="vehroute_36 tripinfo_36 fcd_36" vType="DEFAULT_VEHTYPE" speedFactor="0.97" vaporized=""/>
    <tripinfo id="37" depart="1307.00" departLane="a201_0" departPos="5.10" departSpeed="0.00" departDelay="0.40" arrival="1628.00" arrivalLane="a171_0" arrivalPos="173.84" arrivalSpeed="16.04" duration="321.00" routeLength="2793.50" waitingTime="96.00" waitingCount="2" stopTime="0.00" timeLoss="147.41" rerouteNo="0" devices="vehroute_37 tripinfo_37 fcd_37" vType="DEFAULT_VEHTYPE" speedFactor="1.18" vaporized=""/>
    <tripinfo id="38" depart="1322.00" departLane="a201_0" departPos="5.10" departSpeed="0.00" departDelay="0.96" arrival="1630.00" arrivalLane="a171_0" arrivalPos="173.84" arrivalSpeed="14.95" duration="308.00" routeLength="2796.72" waitingTime="77.00" waitingCount="2" stopTime="0.00" timeLoss="122.34" rerouteNo="0" devices="vehroute_38 tripinfo_38 fcd_38" vType="DEFAULT_VEHTYPE" speedFactor="1.10" vaporized=""/>
    <tripinfo id="39" depart="1363.00" departLane="a201_0" departPos="5.10" departSpeed="0.00" departDelay="0.48" arrival="1646.00" arrivalLane="a171_0" arrivalPos="173.84" arrivalSpeed="12.45" duration="283.00" routeLength="2793.76" waitingTime="24.00" waitingCount="2" stopTime="0.00" timeLoss="55.29" rerouteNo="0" devices="vehroute_39 tripinfo_39 fcd_39" vType="DEFAULT_VEHTYPE" speedFactor="0.90" vaporized=""/>
    <tripinfo id="40" depart="1372.00" departLane="a16_0" departPos="5.10" departSpeed="0.00" departDelay="0.73" arrival="1713.00" arrivalLane="b3[1]_0" arrivalPos="172.58" arrivalSpeed="13.90" duration="341.00" routeLength="3128.64" waitingTime="63.00" waitingCount="4" stopTime="0.00" timeLoss="116.89" rerouteNo="0" devices="vehroute_40 tripinfo_40 fcd_40" vType="DEFAULT_VEHTYPE" speedFactor="1.03" vaporized=""/>
    <tripinfo id="41" depart="1378.00" departLane="a201_0" departPos="5.10" departSpeed="0.00" departDelay="0.91" arrival="1752.00" arrivalLane="a171_0" arrivalPos="173.84" arrivalSpeed="13.26" duration="374.00" routeLength="2793.76" waitingTime="117.00" waitingCount="3" stopTime="0.00" timeLoss="159.55" rerouteNo="0" devices="vehroute_41 tripinfo_41 fcd_41" vType="DEFAULT_VEHTYPE" speedFactor="0.96" vaporized=""/>
    <tripinfo id="42" depart="1408.00" departLane="a201_0" departPos="5.10" departSpeed="0.00" departDelay="0.25" arrival="1753.00" arrivalLane="a171_0" arrivalPos="173.84" arrivalSpeed="15.00" duration="345.00" routeLength="2796.72" waitingTime="109.00" waitingCount="3" stopTime="0.00" timeLoss="157.67" rerouteNo="0" devices="vehroute_42 tripinfo_42 fcd_42" vType="DEFAULT_VEHTYPE" speedFactor="1.09" vaporized=""/>
    <tripinfo id="44" depart="1445.00" departLane="a201_0" departPos="5.10" departSpeed="0.00" departDelay="0.72" arrival="1755.00" arrivalLane="a171_0" arrivalPos="173.84" arrivalSpeed="13.82" duration="310.00" routeLength="2793.76" waitingTime="72.00" waitingCount="2" stopTime="0.00" timeLoss="113.64" rerouteNo="0" devices="vehroute_44 tripinfo_44 fcd_44" vType="DEFAULT_VEHTYPE" speedFactor="1.04" vaporized=""/>
    <tripinfo id="45" depart="1475.00" departLane="a16_0" departPos="5.10" departSpeed="0.00" departDelay="0.88" arrival="1837.00" arrivalLane="b3[1]_1" arrivalPos="172.58" arrivalSpeed="15.09" duration="362.00" routeLength="3123.39" waitingTime="79.00" waitingCount="5" stopTime="0.00" timeLoss="150.64" rerouteNo="0" devices="vehroute_45 tripinfo_45 fcd_45" vType="DEFAULT_VEHTYPE" speedFactor="1.09" vaporized=""/>
    <tripinfo id="43" depart="1430.00" departLane="a16_0" departPos="5.10" departSpeed="0.00" departDelay="0.16" arrival="1838.00" arrivalLane="b3[1]_0" arrivalPos="172.58" arrivalSpeed="14.17" duration="408.00" routeLength="3128.64" waitingTime="127.00" waitingCount="7" stopTime="0.00" timeLoss="186.74" rerouteNo="0" devices="vehroute_43 tripinfo_43 fcd_43" vType="DEFAULT_VEHTYPE" speedFactor="1.04" vaporized=""/>
    <tripinfo id="46" depart="1522.00" departLane="a201_0" departPos="5.10" departSpeed="0.00" departDelay="0.32" arrival="1871.00" arrivalLane="a171_0" arrivalPos="173.84" arrivalSpeed="13.13" duration="349.00" routeLength="2796.72" waitingTime="106.00" waitingCount="3" stopTime="0.00" timeLoss="143.23" rerouteNo="0" devices="vehroute_46 tripinfo_46 fcd_46" vType="DEFAULT_VEHTYPE" speedFactor="1.00" vaporized=""/>
    <tripinfo id="48" depart="1607.00" departLane="a16_0" departPos="5.10" departSpeed="0.00" departDelay="0.13" arrival="1966.00" arrivalLane="b3[1]_1" arrivalPos="172.58" arrivalSpeed="10.90" duration="359.00" routeLength="3123.39" waitingTime="38.00" waitingCount="5" stopTime="0.00" timeLoss="96.38" rerouteNo="0" devices="vehroute_48 tripinfo_48 fcd_48" vType="DEFAULT_VEHTYPE" speedFactor="0.88" vaporized=""/>
    <tripinfo id="47" depart="1593.00" departLane="a16_0" departPos="5.10" departSpeed="0.00" departDelay="0.32" arrival="1967.00" arrivalLane="b3[1]_0" arrivalPos="172.58" arrivalSpeed="12.13" duration="374.00" routeLength="3128.64" waitingTime="62.00" waitingCount="5" stopTime="0.00" timeLoss="117.57" rerouteNo="0" devices="vehroute_47 tripinfo_47 fcd_47" vType="DEFAULT_VEHTYPE" speedFactor="0.90" vaporized=""/>
    <tripinfo id="49" depart="1645.00" departLane="a201_0" departPos="5.10" departSpeed="0.00" departDelay="0.31" arrival="2009.00" arrivalLane="a171_0" arrivalPos="173.84" arrivalSpeed="11.52" duration="364.00" routeLength="2796.72" waitingTime="85.00" waitingCount="4" stopTime="0.00" timeLoss="122.60" rerouteNo="0" devices="vehroute_49 tripinfo_49 fcd_49" vType="DEFAULT_VEHTYPE" speedFactor="0.85" vaporized=""/>
    <tripinfo id="50" depart="1710.00" departLane="a201_0" departPos="5.10" departSpeed="0.00" departDelay="0.41" arrival="2058.00" arrivalLane="a171_0" arrivalPos="173.84" arrivalSpeed="10.85" duration="348.00" routeLength="2796.72" waitingTime="72.00" waitingCount="2" stopTime="0.00" timeLoss="108.97" rerouteNo="0" devices="vehroute_50 tripinfo_50 fcd_50" vType="DEFAULT_VEHTYPE" speedFactor="0.85" vaporized=""/>
    <tripinfo id="52" depart="1726.00" departLane="a16_0" departPos="5.10" departSpeed="0.00" departDelay="0.32" arrival="2090.00" arrivalLane="b3[1]_0" arrivalPos="172.58" arrivalSpeed="12.86" duration="364.00" routeLength="3128.64" waitingTime="78.00" waitingCount="6" stopTime="0.00" timeLoss="138.72" rerouteNo="0" devices="vehroute_52 tripinfo_52 fcd_52" vType="DEFAULT_VEHTYPE" speedFactor="1.02" vaporized=""/>
    <tripinfo id="51" depart="1722.00" departLane="a201_0" departPos="5.10" departSpeed="0.00" departDelay="0.36" arrival="2106.00" arrivalLane="a171_0" arrivalPos="173.84" arrivalSpeed="15.91" duration="384.00" routeLength="2796.72" waitingTime="166.00" waitingCount="3" stopTime="0.00" timeLoss="209.03" rerouteNo="0" devices="vehroute_51 tripinfo_51 fcd_51" vType="DEFAULT_VEHTYPE" speedFactor="1.17" vaporized=""/>
    <tripinfo id="54" depart="1822.00" departLane="a201_0" departPos="5.10" departSpeed="0.00" departDelay="0.01" arrival="2118.00" arrivalLane="a171_0" arrivalPos="173.84" arrivalSpeed="13.71" duration="296.00" routeLength="2796.72" waitingTime="65.00" waitingCount="1" stopTime="0.00" timeLoss="91.89" rerouteNo="0" devices="vehroute_54 tripinfo_54 fcd_54" vType="DEFAULT_VEHTYPE" speedFactor="1.00" vaporized=""/>
    <tripinfo id="55" depart="1825.00" departLane="a201_0" departPos="5.10" departSpeed="0.00" departDelay="0.38" arrival="2122.00" arrivalLane="a171_0" arrivalPos="173.84" arrivalSpeed="13.38" duration="297.00" routeLength="2796.72" waitingTime="62.00" waitingCount="1" stopTime="0.00" timeLoss="90.95" rerouteNo="0" devices="vehroute_55 tripinfo_55 fcd_55" vType="DEFAULT_VEHTYPE" speedFactor="1.00" vaporized=""/>
    <tripinfo id="56" depart="1836.00" departLane="a201_0" departPos="5.10" departSpeed="0.00" departDelay="0.99" arrival="2133.00" arrivalLane="a171_0" arrivalPos="173.84" arrivalSpeed="12.47" duration="297.00" routeLength="2796.72" waitingTime="36.00" waitingCount="2" stopTime="0.00" timeLoss="68.93" rerouteNo="0" devices="vehroute_56 tripinfo_56 fcd_56" vType="DEFAULT_VEHTYPE" speedFactor="0.90" vaporized=""/>
    <tripinfo id="53" depart="1805.00" departLane="a16_0" departPos="5.10" departSpeed="0.00" departDelay="0.85" arrival="2216.00" arrivalLane="b3[1]_0" arrivalPos="172.58" arrivalSpeed="14.47" duration="411.00" routeLength="3128.64" waitingTime="134.00" waitingCount="8" stopTime="0.00" timeLoss="200.22" rerouteNo="0" devices="vehroute_53 tripinfo_53 fcd_53" vType="DEFAULT_VEHTYPE" speedFactor="1.10" vaporized=""/>
    <tripinfo id="58" depart="1944.00" departLane="a201_0" departPos="5.10" departSpeed="0.00" departDelay="0.96" arrival="2238.00" arrivalLane="a171_0" arrivalPos="173.84" arrivalSpeed="13.73" duration="294.00" routeLength="2796.72" waitingTime="55.00" waitingCount="3" stopTime="0.00" timeLoss="94.10" rerouteNo="0" devices="vehroute_58 tripinfo_58 fcd_58" vType="DEFAULT_VEHTYPE" speedFactor="1.02" vaporized=""/>
    <tripinfo id="57" depart="1917.00" departLane="a16_0" departPos="5.10" departSpeed="0.00" departDelay="0.07" arrival="2342.00" arrivalLane="b3[1]_0" arrivalPos="172.58" arrivalSpeed="15.13" duration="425.00" routeLength="3128.64" waitingTime="157.00" waitingCount="7" stopTime="0.00" timeLoss="223.58" rerouteNo="0" devices="vehroute_57 tripinfo_57 fcd_57" vType="DEFAULT_VEHTYPE" speedFactor="1.14" vaporized=""/>
    <tripinfo id="60" depart="2063.00" departLane="a201_0" departPos="5.10" departSpeed="0.00" departDelay="0.05" arrival="2393.00" arrivalLane="a171_0" arrivalPos="173.84" arrivalSpeed="14.49" duration="330.00" routeLength="2793.76" waitingTime="99.00" waitingCount="4" stopTime="0.00" timeLoss="140.98" rerouteNo="0" devices="vehroute_60 tripinfo_60 fcd_60" vType="DEFAULT_VEHTYPE" speedFactor="1.08" vaporized=""/>
    <tripinfo id="59" depart="2040.00" departLane="a201_0" departPos="5.10" departSpeed="0.00" departDelay="0.33" arrival="2399.00" arrivalLane="a171_0" arrivalPos="173.84" arrivalSpeed="12.32" duration="359.00" routeLength="2793.50" waitingTime="106.00" waitingCount="4" stopTime="0.00" timeLoss="146.85" rerouteNo="0" devices="vehroute_59 tripinfo_59 fcd_59" vType="DEFAULT_VEHTYPE" speedFactor="0.97" vaporized=""/>
    <tripinfo id="63" depart="2090.00" departLane="a201_0" departPos="5.10" departSpeed="0.00" departDelay="0.29" arrival="2400.00" arrivalLane="a171_0" arrivalPos="173.84" arrivalSpeed="13.41" duration="310.00" routeLength="2796.72" waitingTime="51.00" waitingCount="3" stopTime="0.00" timeLoss="103.39" rerouteNo="0" devices="vehroute_63 tripinfo_63 fcd_63" vType="DEFAULT_VEHTYPE" speedFactor="0.99" vaporized=""/>
    <tripinfo id="61" depart="2069.00" departLane="a16_0" departPos="5.10" departSpeed="0.00" departDelay="0.49" arrival="2472.00" arrivalLane="b3[1]_0" arrivalPos="172.58" arrivalSpeed="14.49" duration="403.00" routeLength="3128.64" waitingTime="131.00" waitingCount="7" stopTime="0.00" timeLoss="196.39" rerouteNo="0" devices="vehroute_61 tripinfo_61 fcd_61" vType="DEFAULT_VEHTYPE" speedFactor="1.12" vaporized=""/>
    <tripinfo id="62" depart="2072.00" departLane="a16_0" departPos="5.10" departSpeed="0.00" departDelay="1.41" arrival="2472.00" arrivalLane="b3[1]_1" arrivalPos="172.58" arrivalSpeed="13.57" duration="400.00" routeLength="3123.39" waitingTime="106.00" waitingCount="6" stopTime="0.00" timeLoss="172.83" rerouteNo="0" devices="vehroute_62 tripinfo_62 fcd_62" vType="DEFAULT_VEHTYPE" speedFactor="1.02" vaporized=""/>
    <tripinfo id="64" depart="2135.00" departLane="a201_0" departPos="5.10" departSpeed="0.00" departDelay="0.88" arrival="2491.00" arrivalLane="a171_0" arrivalPos="173.84" arrivalSpeed="12.02" duration="356.00" routeLength="2796.72" waitingTime="109.00" waitingCount="2" stopTime="0.00" timeLoss="137.84" rerouteNo="0" devices="vehroute_64 tripinfo_64 fcd_64" vType="DEFAULT_VEHTYPE" speedFactor="0.94" vaporized=""/>
    <tripinfo id="65" depart="2145.00" departLane="a16_0" departPos="5.10" departSpeed="0.00" departDelay="0.30" arrival="2615.00" arrivalLane="b3[1]_0" arrivalPos="172.58" arrivalSpeed="11.22" duration="470.00" routeLength="3128.64" waitingTime="151.00" waitingCount="7" stopTime="0.00" timeLoss="209.21" rerouteNo="0" devices="vehroute_65 tripinfo_65 fcd_65" vType="DEFAULT_VEHTYPE" speedFactor="0.88" vaporized=""/>
    <tripinfo id="66" depart="2183.00" departLane="a201_0" departPos="5.10" departSpeed="0.00" departDelay="0.06" arrival="2616.00" arrivalLane="a171_0" arrivalPos="173.84" arrivalSpeed="11.38" duration="433.00" routeLength="2796.72" waitingTime="170.00" waitingCount="3" stopTime="0.00" timeLoss="207.48" rerouteNo="0" devices="vehroute_66 tripinfo_66 fcd_66" vType="DEFAULT_VEHTYPE" speedFactor="0.91" vaporized=""/>
    <tripinfo id="69" depart="2261.00" departLane="a201_0" departPos="5.10" departSpeed="0.00" departDelay="0.38" arrival="2618.00" arrivalLane="a171_0" arrivalPos="173.84" arrivalSpeed="14.18" duration="357.00" routeLength="2793.50" waitingTime="106.00" waitingCount="2" stopTime="0.00" timeLoss="156.34" rerouteNo="0" devices="vehroute_69 tripinfo_69 fcd_69" vType="DEFAULT_VEHTYPE" speedFactor="1.02" vaporized=""/>