<?xml version="1.0" encoding="UTF-8"?>

<!-- generated on 2025-03-21 18:04:26 by Eclipse SUMO sumo Version 1.21.0
<sumoConfiguration xmlns:xsi="http://www.w3.org/2001/XMLSchema-instance" xsi:noNamespaceSchemaLocation="http://sumo.dlr.de/xsd/sumoConfiguration.xsd">

    <input>
        <net-file value="${STATICPATH}/joined_lanes.net.xml"/>
        <route-files value="${SIMULATIONPATH}/generatedRoutes.rou.xml"/>
        <additional-files value="${STATICPATH}/detectors.add.xml,${STATICPATH}/joined_vtypes.add.xml,${STATICPATH}/joined_tls.add.xml"/>
    </input>

    <output>
        <fcd-output value="${SIMULATIONPATH}/fcd.xml"/>
        <queue-output value="${SIMULATIONPATH}/queue.xml"/>
        <summary-output value="${SIMULATIONPATH}/summary.xml"/>
        <tripinfo-output value="${SIMULATIONPATH}/tripinfos.xml"/>
        <vehroute-output value="${SIMULATIONPATH}/vehroute.xml"/>
        <save-state.prefix value="configs\state"/>
    </output>

    <processing>
        <ignore-junction-blocker value="1"/>
        <ignore-route-errors value="true"/>
        <time-to-teleport value="-1"/>
    </processing>

    <report>
        <log value="C:/Users/fabio/Desktop/sumo_log.txt"/>
        <no-step-log value="true"/>
    </report>

    <emissions>
        <phemlight-path value="configs\./PHEMlight/"/>
    </emissions>

    <traci_server>
        <remote-port value="60293"/>
    </traci_server>

</sumoConfiguration>
-->

<routes xmlns:xsi="http://www.w3.org/2001/XMLSchema-instance" xsi:noNamespaceSchemaLocation="http://sumo.dlr.de/xsd/routes_file.xsd">
    <vehicle id="0" depart="5.00" arrival="330.00">
        <route edges="a16 a37 a36 a40 a153 a87[0] a20001+87[1][0] a87[1][1] am90 am91 a88 a187 a191 a17 a71 b38[0] b38[0]a b38[1][0] b38[1][1] b38[1][1]a b56[1][0] b56[1][1] b5[1][0]+66 b5[1][1][1] b8 b3[1]"/>
    </vehicle>

    <vehicle id="1" depart="73.00" arrival="477.00">
        <route edges="a16 a37 a36 a40 a153 a87[0] a20001+87[1][0] a87[1][1] am90 am91 a88 a187 a191 a17 a71 b38[0] b38[0]a b38[1][0] b38[1][1] b38[1][1]a b56[1][0] b56[1][1] b5[1][0]+66 b5[1][1][1] b8 b3[1]"/>
    </vehicle>

    <vehicle id="2" depart="83.00" arrival="517.00">
        <route edges="a201 a201c a204a[0] a124 b12 b50[0] b50[1] b50[1]a a181 a18 a17 a71 a67 a80 a127 a77[1][0] a77ab a77bc a77cd a53cd a53[0] a78[1][1] a189[0] a189[1][0]+20000 a189[1][1] a188 a87[0] a20001+87[1][0] a87[1][1] am90 a171"/>
    </vehicle>

    <vehicle id="3" depart="189.00" arrival="631.00">
        <route edges="a16 a37 a36 a40 a153 a87[0] a20001+87[1][0] a87[1][1] am90 am91 a88 a187 a191 a17 a71 b38[0] b38[0]a b38[1][0] b38[1][1] b38[1][1]a b56[1][0] b56[1][1] b5[1][0]+66 b5[1][1][1] b8 b3[1]"/>
    </vehicle>

    <vehicle id="5" depart="252.00" arrival="658.00">
        <route edges="a201 a201c a204a[0] a124 b12 b50[0] b50[1] b50[1]a a181 a18 a17 a71 a67 a80 a127 a77[1][0] a77ab a77bc a77cd a53cd a53[0] a78[1][1] a189[0] a189[1][0]+20000 a189[1][1] a188 a87[0] a20001+87[1][0] a87[1][1] am90 a171"/>
    </vehicle>

    <vehicle id="7" depart="320.00" arrival="660.00">
        <route edges="a201 a201c a204a[0] a124 b12 b50[0] b50[1] b50[1]a a181 a18 a17 a71 a67 a80 a127 a77[1][0] a77ab a77bc a77cd a53cd a53[0] a78[1][1] a189[0] a189[1][0]+20000 a189[1][1] a188 a87[0] a20001+87[1][0] a87[1][1] am90 a171"/>
    </vehicle>

    <vehicle id="4" depart="228.00" arrival="682.00">
        <route edges="a16 a37 a36 a40 a153 a87[0] a20001+87[1][0] a87[1][1] am90 am91 a88 a187 a191 a17 a71 b38[0] b38[0]a b38[1][0] b38[1][1] b38[1][1]a b56[1][0] b56[1][1] b5[1][0]+66 b5[1][1][1] b8 b3[1]"/>
    </vehicle>

    <vehicle id="6" depart="288.00" arrival="684.00">
        <route edges="a16 a37 a36 a40 a153 a87[0] a20001+87[1][0] a87[1][1] am90 am91 a88 a187 a191 a17 a71 b38[0] b38[0]a b38[1][0] b38[1][1] b38[1][1]a b56[1][0] b56[1][1] b5[1][0]+66 b5[1][1][1] b8 b3[1]"/>
    </vehicle>

    <vehicle id="10" depart="432.00" arrival="757.00">
        <route edges="a201 a201c a204a[0] a124 b12 b50[0] b50[1] b50[1]a a181 a18 a17 a71 a67 a80 a127 a77[1][0] a77ab a77bc a77cd a53cd a53[0] a78[1][1] a189[0] a189[1][0]+20000 a189[1][1] a188 a87[0] a20001+87[1][0] a87[1][1] am90 a171"/>
    </vehicle>

    <vehicle id="8" depart="335.00" arrival="771.00">
        <route edges="a16 a37 a36 a40 a153 a87[0] a20001+87[1][0] a87[1][1] am90 am91 a88 a187 a191 a17 a71 b38[0] b38[0]a b38[1][0] b38[1][1] b38[1][1]a b56[1][0] b56[1][1] b5[1][0]+66 b5[1][1][1] b8 b3[1]"/>
    </vehicle>

    <vehicle id="11" depart="439.00" arrival="811.00">
        <route edges="a16 a37 a36 a40 a153 a87[0] a20001+87[1][0] a87[1][1] am90 am91 a88 a187 a191 a17 a71 b38[0] b38[0]a b38[1][0] b38[1][1] b38[1][1]a b56[1][0] b56[1][1] b5[1][0]+66 b5[1][1][1] b8 b3[1]"/>
    </vehicle>

    <vehicle id="12" depart="502.00" arrival="812.00">
        <route edges="a16 a37 a36 a40 a153 a87[0] a20001+87[1][0] a87[1][1] am90 am91 a88 a187 a191 a17 a71 b38[0] b38[0]a b38[1][0] b38[1][1] b38[1][1]a b56[1][0] b56[1][1] b5[1][0]+66 b5[1][1][1] b8 b3[1]"/>
    </vehicle>

    <vehicle id="9" depart="424.00" arrival="825.00">
        <route edges="a16 a37 a36 a40 a153 a87[0] a20001+87[1][0] a87[1][1] am90 am91 a88 a187 a191 a17 a71 b38[0] b38[0]a b38[1][0] b38[1][1] b38[1][1]a b56[1][0] b56[1][1] b5[1][0]+66 b5[1][1][1] b8 b3[1]"/>
    </vehicle>

    <vehicle id="14" depart="554.00" arrival="887.00">
        <route edges="a201 a201c a204a[0] a124 b12 b50[0] b50[1] b50[1]a a181 a18 a17 a71 a67 a80 a127 a77[1][0] a77ab a77bc a77cd a53cd a53[0] a78[1][1] a189[0] a189[1][0]+20000 a189[1][1] a188 a87[0] a20001+87[1][0] a87[1][1] am90 a171"/>
    </vehicle>

    <vehicle id="17" depart="614.00" arrival="894.00">
        <route edges="a201 a201c a204a[0] a124 b12 b50[0] b50[1] b50[1]a a181 a18 a17 a71 a67 a80 a127 a77[1][0] a77ab a77bc a77cd a53cd a53[0] a78[1][1] a189[0] a189[1][0]+20000 a189[1][1] a188 a87[0] a20001+87[1][0] a87[1][1] am90 a171"/>
    </vehicle>

    <vehicle id="13" depart="509.00" arrival="955.00">
        <route edges="a16 a37 a36 a40 a153 a87[0] a20001+87[1][0] a87[1][1] am90 am91 a88 a187 a191 a17 a71 b38[0] b38[0]a b38[1][0] b38[1][1] b38[1][1]a b56[1][0] b56[1][1] b5[1][0]+66 b5[1][1][1] b8 b3[1]"/>
    </vehicle>

    <vehicle id="15" depart="574.00" arrival="964.00">
        <route edges="a16 a37 a36 a40 a153 a87[0] a20001+87[1][0] a87[1][1] am90 am91 a88 a187 a191 a17 a71 b38[0] b38[0]a b38[1][0] b38[1][1] b38[1][1]a b56[1][0] b56[1][1] b5[1][0]+66 b5[1][1][1] b8 b3[1]"/>
    </vehicle>

    <vehicle id="16" depart="583.00" arrival="968.00">
        <route edges="a16 a37 a36 a40 a153 a87[0] a20001+87[1][0] a87[1][1] am90 am91 a88 a187 a191 a17 a71 b38[0] b38[0]a b38[1][0] b38[1][1] b38[1][1]a b56[1][0] b56[1][1] b5[1][0]+66 b5[1][1][1] b8 b3[1]"/>
    </vehicle>

    <vehicle id="18" depart="686.00" arrival="1016.00">
        <route edges="a201 a201c a204a[0] a124 b12 b50[0] b50[1] b50[1]a a181 a18 a17 a71 a67 a80 a127 a77[1][0] a77ab a77bc a77cd a53cd a53[0] a78[1][1] a189[0] a189[1][0]+20000 a189[1][1] a188 a87[0] a20001+87[1][0] a87[1][1] am90 a171"/>
    </vehicle>

    <vehicle id="19" depart="764.00" arrival="1121.00">
        <route edges="a201 a201c a204a[0] a124 b12 b50[0] b50[1] b50[1]a a181 a18 a17 a71 a67 a80 a127 a77[1][0] a77ab a77bc a77cd a53cd a53[0] a78[1][1] a189[0] a189[1][0]+20000 a189[1][1] a188 a87[0] a20001+87[1][0] a87[1][1] am90 a171"/>
    </vehicle>

    <vehicle id="20" depart="806.00" arrival="1181.00">
        <route edges="a201 a201c a204a[0] a124 b12 b50[0] b50[1] b50[1]a a181 a18 a17 a71 a67 a80 a127 a77[1][0] a77ab a77bc a77cd a53cd a53[0] a78[1][1] a189[0] a189[1][0]+20000 a189[1][1] a188 a87[0] a20001+87[1][0] a87[1][1] am90 a171"/>
    </vehicle>

    <vehicle id="21" depart="819.00" arrival="1184.00">
        <route edges="a201 a201c a204a[0] a124 b12 b50[0] b50[1] b50[1]a a181 a18 a17 a71 a67 a80 a127 a77[1][0] a77ab a77bc a77cd a53cd a53[0] a78[1][1] a189[0] a189[1][0]+20000 a189[1][1] a188 a87[0] a20001+87[1][0] a87[1][1] am90 a171"/>
    </vehicle>

    <vehicle id="22" depart="831.00" arrival="1187.00">
        <route edges="a201 a201c a204a[0] a124 b12 b50[0] b50[1] b50[1]a a181 a18 a17 a71 a67 a80 a127 a77[1][0] a77ab a77bc a77cd a53cd a53[0] a78[1][1] a189[0] a189[1][0]+20000 a189[1][1] a188 a87[0] a20001+87[1][0] a87[1][1] am90 a171"/>
    </vehicle>

    <vehicle id="23" depart="838.00" arrival="1191.00">
        <route edges="a201 a201c a204a[0] a124 b12 b50[0] b50[1] b50[1]a a181 a18 a17 a71 a67 a80 a127 a77[1][0] a77ab a77bc a77cd a53cd a53[0] a78[1][1] a189[0] a189[1][0]+20000 a189[1][1] a188 a87[0] a20001+87[1][0] a87[1][1] am90 a171"/>
    </vehicle>

    <vehicle id="24" depart="861.00" arrival="1201.00">
        <route edges="a16 a37 a36 a40 a153 a87[0] a20001+87[1][0] a87[1][1] am90 am91 a88 a187 a191 a17 a71 b38[0] b38[0]a b38[1][0] b38[1][1] b38[1][1]a b56[1][0] b56[1][1] b5[1][0]+66 b5[1][1][1] b8 b3[1]"/>
    </vehicle>

    <vehicle id="25" depart="878.00" arrival="1224.00">
        <route edges="a16 a37 a36 a40 a153 a87[0] a20001+87[1][0] a87[1][1] am90 am91 a88 a187 a191 a17 a71 b38[0] b38[0]a b38[1][0] b38[1][1] b38[1][1]a b56[1][0] b56[1][1] b5[1][0]+66 b5[1][1][1] b8 b3[1]"/>
    </vehicle>

    <vehicle id="27" depart="977.00" arrival="1276.00">
        <route edges="a201 a201c a204a[0] a124 b12 b50[0] b50[1] b50[1]a a181 a18 a17 a71 a67 a80 a127 a77[1][0] a77ab a77bc a77cd a53cd a53[0] a78[1][1] a189[0] a189[1][0]+20000 a189[1][1] a188 a87[0] a20001+87[1][0] a87[1][1] am90 a171"/>
    </vehicle>

    <vehicle id="26" depart="926.00" arrival="1279.00">
        <route edges="a201 a201c a204a[0] a124 b12 b50[0] b50[1] b50[1]a a181 a18 a17 a71 a67 a80 a127 a77[1][0] a77ab a77bc a77cd a53cd a53[0] a78[1][1] a189[0] a189[1][0]+20000 a189[1][1] a188 a87[0] a20001+87[1][0] a87[1][1] am90 a171"/>
    </vehicle>

    <vehicle id="28" depart="1007.00" arrival="1369.00">
        <route edges="a201 a201c a204a[0] a124 b12 b50[0] b50[1] b50[1]a a181 a18 a17 a71 a67 a80 a127 a77[1][0] a77ab a77bc a77cd a53cd a53[0] a78[1][1] a189[0] a189[1][0]+20000 a189[1][1] a188 a87[0] a20001+87[1][0] a87[1][1] am90 a171"/>
    </vehicle>

    <vehicle id="30" depart="1130.00" arrival="1372.00">
        <route edges="a201 a201c a204a[0] a124 b12 b50[0] b50[1] b50[1]a a181 a18 a17 a71 a67 a80 a127 a77[1][0] a77ab a77bc a77cd a53cd a53[0] a78[1][1] a189[0] a189[1][0]+20000 a189[1][1] a188 a87[0] a20001+87[1][0] a87[1][1] am90 a171"/>
    </vehicle>

    <vehicle id="31" depart="1144.00" arrival="1375.00">
        <route edges="a201 a201c a204a[0] a124 b12 b50[0] b50[1] b50[1]a a181 a18 a17 a71 a67 a80 a127 a77[1][0] a77ab a77bc a77cd a53cd a53[0] a78[1][1] a189[0] a189[1][0]+20000 a189[1][1] a188 a87[0] a20001+87[1][0] a87[1][1] am90 a171"/>
    </vehicle>

    <vehicle id="34" depart="1231.00" arrival="1515.00">
        <route edges="a201 a201c a204a[0] a124 b12 b50[0] b50[1] b50[1]a a181 a18 a17 a71 a67 a80 a127 a77[1][0] a77ab a77bc a77cd a53cd a53[0] a78[1][1] a189[0] a189[1][0]+20000 a189[1][1] a188 a87[0] a20001+87[1][0] a87[1][1] am90 a171"/>
    </vehicle>

    <vehicle id="33" depart="1201.00" arrival="1597.00">
        <route edges="a16 a37 a36 a40 a153 a87[0] a20001+87[1][0] a87[1][1] am90 am91 a88 a187 a191 a17 a71 b38[0] b38[0]a b38[1][0] b38[1][1] b38[1][1]a b56[1][0] b56[1][1] b5[1][0]+66 b5[1][1][1] b8 b3[1]"/>
    </vehicle>

    <vehicle id="32" depart="1162.00" arrival="1601.00">
        <route edges="a16 a37 a36 a40 a153 a87[0] a20001+87[1][0] a87[1][1] am90 am91 a88 a187 a191 a17 a71 b38[0] b38[0]a b38[1][0] b38[1][1] b38[1][1]a b56[1][0] b56[1][1] b5[1][0]+66 b5[1][1][1] b8 b3[1]"/>
    </vehicle>

    <vehicle id="35" depart="1237.00" arrival="1603.00">
        <route edges="a16 a37 a36 a40 a153 a87[0] a20001+87[1][0] a87[1][1] am90 am91 a88 a187 a191 a17 a71 b38[0] b38[0]a b38[1][0] b38[1][1] b38[1][1]a b56[1][0] b56[1][1] b5[1][0]+66 b5[1][1][1] b8 b3[1]"/>
    </vehicle>

    <vehicle id="29" depart="1084.00" arrival="1605.00">
        <route edges="a16 a37 a36 a40 a153 a87[0] a20001+87[1][0] a87[1][1] am90 am91 a88 a187 a191 a17 a71 b38[0] b38[0]a b38[1][0] b38[1][1] b38[1][1]a b56[1][0] b56[1][1] b5[1][0]+66 b5[1][1][1] b8 b3[1]"/>
    </vehicle>

    <vehicle id="36" depart="1247.00" arrival="1626.00">
        <route edges="a201 a201c a204a[0] a124 b12 b50[0] b50[1] b50[1]a a181 a18 a17 a71 a67 a80 a127 a77[1][0] a77ab a77bc a77cd a53cd a53[0] a78[1][1] a189[0] a189[1][0]+20000 a189[1][1] a188 a87[0] a20001+87[1][0] a87[1][1] am90 a171"/>
    </vehicle>

    <vehicle id="37" depart="1307.00" arrival="1628.00">
        <route edges="a201 a201c a204a[0] a124 b12 b50[0] b50[1] b50[1]a a181 a18 a17 a71 a67 a80 a127 a77[1][0] a77ab a77bc a77cd a53cd a53[0] a78[1][1] a189[0] a189[1][0]+20000 a189[1][1] a188 a87[0] a20001+87[1][0] a87[1][1] am90 a171"/>
    </vehicle>

    <vehicle id="38" depart="1322.00" arrival="1630.00">
        <route edges="a201 a201c a204a[0] a124 b12 b50[0] b50[1] b50[1]a a181 a18 a17 a71 a67 a80 a127 a77[1][0] a77ab a77bc a77cd a53cd a53[0] a78[1][1] a189[0] a189[1][0]+20000 a189[1][1] a188 a87[0] a20001+87[1][0] a87[1][1] am90 a171"/>
    </vehicle>

    <vehicle id="39" depart="1363.00" arrival="1646.00">
        <route edges="a201 a201c a204a[0] a124 b12 b50[0] b50[1] b50[1]a a181 a18 a17 a71 a67 a80 a127 a77[1][0] a77ab a77bc a77cd a53cd a53[0] a78[1][1] a189[0] a189[1][0]+20000 a189[1][1] a188 a87[0] a20001+87[1][0] a87[1][1] am90 a171"/>
    </vehicle>

    <vehicle id="40" depart="1372.00" arrival="1713.00">
        <route edges="a16 a37 a36 a40 a153 a87[0] a20001+87[1][0] a87[1][1] am90 am91 a88 a187 a191 a17 a71 b38[0] b38[0]a b38[1][0] b38[1][1] b38[1][1]a b56[1][0] b56[1][1] b5[1][0]+66 b5[1][1][1] b8 b3[1]"/>
    </vehicle>

    <vehicle id="41" depart="1378.00" arrival="1752.00">
        <route edges="a201 a201c a204a[0] a124 b12 b50[0] b50[1] b50[1]a a181 a18 a17 a71 a67 a80 a127 a77[1][0] a77ab a77bc a77cd a53cd a53[0] a78[1][1] a189[0] a189[1][0]+20000 a189[1][1] a188 a87[0] a20001+87[1][0] a87[1][1] am90 a171"/>
    </vehicle>

    <vehicle id="42" depart="1408.00" arrival="1753.00">
        <route edges="a201 a201c a204a[0] a124 b12 b50[0] b50[1] b50[1]a a181 a18 a17 a71 a67 a80 a127 a77[1][0] a77ab a77bc a77cd a53cd a53[0] a78[1][1] a189[0] a189[1][0]+20000 a189[1][1] a188 a87[0] a20001+87[1][0] a87[1][1] am90 a171"/>
    </vehicle>

    <vehicle id="44" depart="1445.00" arrival="1755.00">
        <route edges="a201 a201c a204a[0] a124 b12 b50[0] b50[1] b50[1]a a181 a18 a17 a71 a67 a80 a127 a77[1][0] a77ab a77bc a77cd a53cd a53[0] a78[1][1] a189[0] a189[1][0]+20000 a189[1][1] a188 a87[0] a20001+87[1][0] a87[1][1] am90 a171"/>
    </vehicle>

    <vehicle id="45" depart="1475.00" arrival="1837.00">
        <route edges="a16 a37 a36 a40 a153 a87[0] a20001+87[1][0] a87[1][1] am90 am91 a88 a187 a191 a17 a71 b38[0] b38[0]a b38[1][0] b38[1][1] b38[1][1]a b56[1][0] b56[1][1] b5[1][0]+66 b5[1][1][1] b8 b3[1]"/>
    </vehicle>

    <vehicle id="43" depart="1430.00" arrival="1838.00">
        <route edges="a16 a37 a36 a40 a153 a87[0] a20001+87[1][0] a87[1][1] am90 am91 a88 a187 a191 a17 a71 b38[0] b38[0]a b38[1][0] b38[1][1] b38[1][1]a b56[1][0] b56[1][1] b5[1][0]+66 b5[1][1][1] b8 b3[1]"/>
    </vehicle>

    <vehicle id="46" depart="1522.00" arrival="1871.00">
        <route edges="a201 a201c a204a[0] a124 b12 b50[0] b50[1] b50[1]a a181 a18 a17 a71 a67 a80 a127 a77[1][0] a77ab a77bc a77cd a53cd a53[0] a78[1][1] a189[0] a189[1][0]+20000 a189[1][1] a188 a87[0] a20001+87[1][0] a87[1][1] am90 a171"/>
    </vehicle>

    <vehicle id="48" depart="1607.00" arrival="1966.00">
        <route edges="a16 a37 a36 a40 a153 a87[0] a20001+87[1][0] a87[1][1] am90 am91 a88 a187 a191 a17 a71 b38[0] b38[0]a b38[1][0] b38[1][1] b38[1][1]a b56[1][0] b56[1][1] b5[1][0]+66 b5[1][1][1] b8 b3[1]"/>
    </vehicle>

    <vehicle id="47" depart="1593.00" arrival="1967.00">
        <route edges="a16 a37 a36 a40 a153 a87[0] a20001+87[1][0] a87[1][1] am90 am91 a88 a187 a191 a17 a71 b38[0] b38[0]a b38[1][0] b38[1][1] b38[1][1]a b56[1][0] b56[1][1] b5[1][0]+66 b5[1][1][1] b8 b3[1]"/>
    </vehicle>

    <vehicle id="49" depart="1645.00" arrival="2009.00">
        <route edges="a201 a201c a204a[0] a124 b12 b50[0] b50[1] b50[1]a a181 a18 a17 a71 a67 a80 a127 a77[1][0] a77ab a77bc a77cd a53cd a53[0] a78[1][1] a189[0] a189[1][0]+20000 a189[1][1] a188 a87[0] a20001+87[1][0] a87[1][1] am90 a171"/>
    </vehicle>

    <vehicle id="50" depart="1710.00" arrival="2058.00">
        <route edges="a201 a201c a204a[0] a124 b12 b50[0] b50[1] b50[1]a a181 a18 a17 a71 a67 a80 a127 a77[1][0] a77ab a77bc a77cd a53cd a53[0] a78[1][1] a189[0] a189[1][0]+20000 a189[1][1] a188 a87[0] a20001+87[1][0] a87[1][1] am90 a171"/>
    </vehicle>

    <vehicle id="52" depart="1726.00" arrival="2090.00">
        <route edges="a16 a37 a36 a40 a153 a87[0] a20001+87[1][0] a87[1][1] am90 am91 a88 a187 a191 a17 a71 b38[0] b38[0]a b38[1][0] b38[1][1] b38[1][1]a b56[1][0] b56[1][1] b5[1][0]+66 b5[1][1][1] b8 b3[1]"/>
    </vehicle>

    <vehicle id="51" depart="1722.00" arrival="2106.00">
        <route edges="a201 a201c a204a[0] a124 b12 b50[0] b50[1] b50[1]a a181 a18 a17 a71 a67 a80 a127 a77[1][0] a77ab a77bc a77cd a53cd a53[0] a78[1][1] a189[0] a189[1][0]+20000 a189[1][1] a188 a87[0] a20001+87[1][0] a87[1][1] am90 a171"/>
    </vehicle>

    <vehicle id="54" depart="1822.00" arrival="2118.00">
        <route edges="a201 a201c a204a[0] a124 b12 b50[0] b50[1] b50[1]a a181 a18 a17 a71 a67 a80 a127 a77[1][0] a77ab a77bc a77cd a53cd a53[0] a78[1][1] a189[0] a189[1][0]+20000 a189[1][1] a188 a87[0] a20001+87[1][0] a87[1][1] am90 a171"/>
    </vehicle>

    <vehicle id="55" depart="1825.00" arrival="2122.00">
        <route edges="a201 a201c a204a[0] a124 b12 b50[0] b50[1] b50[1]a a181 a18 a17 a71 a67 a80 a127 a77[1][0] a77ab a77bc a77cd a53cd a53[0] a78[1][1] a189[0] a189[1][0]+20000 a189[1][1] a188 a87[0] a20001+87[1][0] a87[1][1] am90 a171"/>
    </vehicle>

    <vehicle id="56" depart="1836.00" arrival="2133.00">
        <route edges="a201 a201c a204a[0] a124 b12 b50[0] b50[1] b50[1]a a181 a18 a17 a71 a67 a80 a127 a77[1][0] a77ab a77bc a77cd a53cd a53[0] a78[1][1] a189[0] a189[1][0]+20000 a189[1][1] a188 a87[0] a20001+87[1][0] a87[1][1] am90 a171"/>
    </vehicle>

    <vehicle id="53" depart="1805.00" arrival="2216.00">
        <route edges="a16 a37 a36 a40 a153 a87[0] a20001+87[1][0] a87[1][1] am90 am91 a88 a187 a191 a17 a71 b38[0] b38[0]a b38[1][0] b38[1][1] b38[1][1]a b56[1][0] b56[1][1] b5[1][0]+66 b5[1][1][1] b8 b3[1]"/>
    </vehicle>

    <vehicle id="58" depart="1944.00" arrival="2238.00">
        <route edges="a201 a201c a204a[0] a124 b12 b50[0] b50[1] b50[1]a a181 a18 a17 a71 a67 a80 a127 a77[1][0] a77ab a77bc a77cd a53cd a53[0] a78[1][1] a189[0] a189[1][0]+20000 a189[1][1] a188 a87[0] a20001+87[1][0] a87[1][1] am90 a171"/>
    </vehicle>

    <vehicle id="57" depart="1917.00" arrival="2342.00">
        <route edges="a16 a37 a36 a40 a153 a87[0] a20001+87[1][0] a87[1][1] am90 am91 a88 a187 a191 a17 a71 b38[0] b38[0]a b38[1][0] b38[1][1] b38[1][1]a b56[1][0] b56[1][1] b5[1][0]+66 b5[1][1][1] b8 b3[1]"/>
    </vehicle>

    <vehicle id="60" depart="2063.00" arrival="2393.00">
        <route edges="a201 a201c a204a[0] a124 b12 b50[0] b50[1] b50[1]a a181 a18 a17 a71 a67 a80 a127 a77[1][0] a77ab a77bc a77cd a53cd a53[0] a78[1][1] a189[0] a189[1][0]+20000 a189[1][1] a188 a87[0] a20001+87[1][0] a87[1][1] am90 a171"/>
    </vehicle>

    <vehicle id="59" depart="2040.00" arrival="2399.00">
        <route edges="a201 a201c a204a[0] a124 b12 b50[0] b50[1] b50[1]a a181 a18 a17 a71 a67 a80 a127 a77[1][0] a77ab a77bc a77cd a53cd a53[0] a78[1][1] a189[0] a189[1][0]+20000 a189[1][1] a188 a87[0] a20001+87[1][0] a87[1][1] am90 a171"/>
    </vehicle>

    <vehicle id="63" depart="2090.00" arrival="2400.00">
        <route edges="a201 a201c a204a[0] a124 b12 b50[0] b50[1] b50[1]a a181 a18 a17 a71 a67 a80 a127 a77[1][0] a77ab a77bc a77cd a53cd a53[0] a78[1][1] a189[0] a189[1][0]+20000 a189[1][1] a188 a87[0] a20001+87[1][0] a87[1][1] am90 a171"/>
    </vehicle>

    <vehicle id="61" depart="2069.00" arrival="2472.00">
        <route edges="a16 a37 a36 a40 a153 a87[0] a20001+87[1][0] a87[1][1] am90 am91 a88 a187 a191 a17 a71 b38[0] b38[0]a b38[1][0] b38[1][1] b38[1][1]a b56[1][0] b56[1][1] b5[1][0]+66 b5[1][1][1] b8 b3[1]"/>
    </vehicle>

    <vehicle id="62" depart="2072.00" arrival="2472.00">
        <route edges="a16 a37 a36 a40 a153 a87[0] a20001+87[1][0] a87[1][1] am90 am91 a88 a187 a191 a17 a71 b38[0] b38[0]a b38[1][0] b38[1][1] b38[1][1]a b56[1][0] b56[1][1] b5[1][0]+66 b5[1][1][1] b8 b3[1]"/>
    </vehicle>

    <vehicle id="64" depart="2135.00" arrival="2491.00">
        <route edges="a201 a201c a204a[0] a124 b12 b50[0] b50[1] b50[1]a a181 a18 a17 a71 a67 a80 a127 a77[1][0] a77ab a77bc a77cd a53cd a53[0] a78[1][1] a189[0] a189[1][0]+20000 a189[1][1] a188 a87[0] a20001+87[1][0] a87[1][1] am90 a171"/>
    </vehicle>

    <vehicle id="65" depart="2145.00" arrival="2615.00">
        <route edges="a16 a37 a36 a40 a153 a87[0] a20001+87[1][0] a87[1][1] am90 am91 a88 a187 a191 a17 a71 b38[0] b38[0]a b38[1][0] b38[1][1] b38[1][1]a b56[1][0] b56[1][1] b5[1][0]+66 b5[1][1][1] b8 b3[1]"/>
    </vehicle>

    <vehicle id="66" depart="2183.00" arrival="2616.00">
        <route edges="a201 a201c a204a[0] a124 b12 b50[0] b50[1] b50[1]a a181 a18 a17 a71 a67 a80 a127 a77[1][0] a77ab a77bc a77cd a53cd a53[0] a78[1][1] a189[0] a189[1][0]+20000 a189[1][1] a188 a87[0] a20001+87[1][0] a87[1][1] am90 a171"/>
    </vehicle>

    <vehicle id="69" depart="2261.00" arrival="2618.00">
        <route edges="a201 a201c a204a[0] a124 b12 b50[0] b50[1] b50[1]a a181 a18 a17 a71 a67 a80 a127 a77[1][0] a77ab a77bc a77cd a53cd a53[0] a78[1][1] a189[0] a189[1][0]+20000 a189[1][1] a188 a87[0] a20001+87[1][0] a87[1][1] am90 a171"/>
    </vehicle>

    <vehicle id="68" depart="2222.00" arrival="2654.00">
        <route edges="a16 a37 a36 a40 a153 a87[0] a20001+87[1][0] a87[1][1] am90 am91 a88 a187 a191 a17 a71 b38[0] b38[0]a b38[1][0] b38[1][1] b38[1][1]a b56[1][0] b56[1][1] b5[1][0]+66 b5[1][1][1] b8 b3[1]"/>
    </vehicle>

    <vehicle id="70" depart="2286.00" arrival="2657.00">
        <route edges="a16 a37 a36 a40 a153 a87[0] a20001+87[1][0] a87[1][1] am90 am91 a88 a187 a191 a17 a71 b38[0] b38[0]a b38[1][0] b38[1][1] b38[1][1]a b56[1][0] b56[1][1] b5[1][0]+66 b5[1][1][1] b8 b3[1]"/>
    </vehicle>

    <vehicle id="67" depart="2191.00" arrival="2663.00">
        <route edges="a16 a37 a36 a40 a153 a87[0] a20001+87[1][0] a87[1][1] am90 am91 a88 a187 a191 a17 a71 b38[0] b38[0]a b38[1][0] b38[1][1] b38[1][1]a b56[1][0] b56[1][1] b5[1][0]+66 b5[1][1][1] b8 b3[1]"/>
    </vehicle>

    <vehicle id="71" depart="2305.00" arrival="2744.00">
        <route edges="a16 a37 a36 a40 a153 a87[0] a20001+87[1][0] a87[1][1] am90 am91 a88 a187 a191 a17 a71 b38[0] b38[0]a b38[1][0] b38[1][1] b38[1][1]a b56[1][0] b56[1][1] b5[1][0]+66 b5[1][1][1] b8 b3[1]"/>
    </vehicle>

    <vehicle id="75" depart="2428.00" arrival="2745.00">
        <route edges="a201 a201c a204a[0] a124 b12 b50[0] b50[1] b50[1]a a181 a18 a17 a71 a67 a80 a127 a77[1][0] a77ab a77bc a77cd a53cd a53[0] a78[1][1] a189[0] a189[1][0]+20000 a189[1][1] a188 a87[0] a20001+87[1][0] a87[1][1] am90 a171"/>
    </vehicle>

    <vehicle id="74" depart="2418.00" arrival="2748.00">
        <route edges="a201 a201c a204a[0] a124 b12 b50[0] b50[1] b50[1]a a181 a18 a17 a71 a67 a80 a127 a77[1][0] a77ab a77bc a77cd a53cd a53[0] a78[1][1] a189[0] a189[1][0]+20000 a189[1][1] a188 a87[0] a20001+87[1][0] a87[1][1] am90 a171"/>
    </vehicle>

    <vehicle id="73" depart="2411.00" arrival="2775.00">
        <route edges="a16 a37 a36 a40 a153 a87[0] a20001+87[1][0] a87[1][1] am90 am91 a88 a187 a191 a17 a71 b38[0] b38[0]a b38[1][0] b38[1][1] b38[1][1]a b56[1][0] b56[1][1] b5[1][0]+66 b5[1][1][1] b8 b3[1]"/>
    </vehicle>

    <vehicle id="76" depart="2449.00" arrival="2779.00">
        <route edges="a16 a37 a36 a40 a153 a87[0] a20001+87[1][0] a87[1][1] am90 am91 a88 a187 a191 a17 a71 b38[0] b38[0]a b38[1][0] b38[1][1] b38[1][1]a b56[1][0] b56[1][1] b5[1][0]+66 b5[1][1][1] b8 b3[1]"/>
    </vehicle>

    <vehicle id="72" depart="2399.00" arrival="2782.00">
        <route edges="a16 a37 a36 a40 a153 a87[0] a20001+87[1][0] a87[1][1] am90 am91 a88 a187 a191 a17 a71 b38[0] b38[0]a b38[1][0] b38[1][1] b38[1][1]a b56[1][0] b56[1][1] b5[1][0]+66 b5[1][1][1] b8 b3[1]"/>
    </vehicle>

    <vehicle id="77" depart="2598.00" arrival="2933.00">
        <route edges="a16 a37 a36 a40 a153 a87[0] a20001+87[1][0] a87[1][1] am90 am91 a88 a187 a191 a17 a71 b38[0] b38[0]a b38[1][0] b38[1][1] b38[1][1]a b56[1][0] b56[1][1] b5[1][0]+66 b5[1][1][1] b8 b3[1]"/>
    </vehicle>

    <vehicle id="79" depart="2718.00" arrival="2979.00">
        <route edges="a201 a201c a204a[0] a124 b12 b50[0] b50[1] b50[1]a a181 a18 a17 a71 a67 a80 a127 a77[1][0] a77ab a77bc a77cd a53cd a53[0] a78[1][1] a189[0] a189[1][0]+20000 a189[1][1] a188 a87[0] a20001+87[1][0] a87[1][1] am90 a171"/>
    </vehicle>

    <vehicle id="78" depart="2654.00" arrival="3058.00">
        <route edges="a16 a37 a36 a40 a153 a87[0] a20001+87[1][0] a87[1][1] am90 am91 a88 a187 a191 a17 a71 b38[0] b38[0]a b38[1][0] b38[1][1] b38[1][1]a b56[1][0] b56[1][1] b5[1][0]+66 b5[1][1][1] b8 b3[1]"/>
    </vehicle>

    <vehicle id="80" depart="2767.00" arrival="3116.00">
        <route edges="a201 a201c a204a[0] a124 b12 b50[0] b50[1] b50[1]a a181 a18 a17 a71 a67 a80 a127 a77[1][0] a77ab a77bc a77cd a53cd a53[0] a78[1][1] a189[0] a189[1][0]+20000 a189[1][1] a188 a87[0] a20001+87[1][0] a87[1][1] am90 a171"/>
    </vehicle>

    <vehicle id="81" depart="2831.00" arrival="3118.00">
        <route edges="a201 a201c a204a[0] a124 b12 b50[0] b50[1] b50[1]a a181 a18 a17 a71 a67 a80 a127 a77[1][0] a77ab a77bc a77cd a53cd a53[0] a78[1][1] a189[0] a189[1][0]+20000 a189[1][1] a188 a87[0] a20001+87[1][0] a87[1][1] am90 a171"/>
    </vehicle>

    <vehicle id="82" depart="2837.00" arrival="3184.00">
        <route edges="a16 a37 a36 a40 a153 a87[0] a20001+87[1][0] a87[1][1] am90 am91 a88 a187 a191 a17 a71 b38[0] b38[0]a b38[1][0] b38[1][1] b38[1][1]a b56[1][0] b56[1][1] b5[1][0]+66 b5[1][1][1] b8 b3[1]"/>
    </vehicle>

    <vehicle id="87" depart="2986.00" arrival="3221.00">
        <route edges="a201 a201c a204a[0] a124 b12 b50[0] b50[1] b50[1]a a181 a18 a17 a71 a67 a80 a127 a77[1][0] a77ab a77bc a77cd a53cd a53[0] a78[1][1] a189[0] a189[1][0]+20000 a189[1][1] a188 a87[0] a20001+87[1][0] a87[1][1] am90 a171"/>
    </vehicle>

    <vehicle id="83" depart="2948.00" arrival="3232.00">
        <route edges="a201 a201c a204a[0] a124 b12 b50[0] b50[1] b50[1]a a181 a18 a17 a71 a67 a80 a127 a77[1][0] a77ab a77bc a77cd a53cd a53[0] a78[1][1] a189[0] a189[1][0]+20000 a189[1][1] a188 a87[0] a20001+87[1][0] a87[1][1] am90 a171"/>
    </vehicle>

    <vehicle id="84" depart="2959.00" arrival="3278.00">
        <route edges="a201 a201c a204a[0] a124 b12 b50[0] b50[1] b50[1]a a181 a18 a17 a71 a67 a80 a127 a77[1][0] a77ab a77bc a77cd a53cd a53[0] a78[1][1] a189[0] a189[1][0]+20000 a189[1][1] a188 a87[0] a20001+87[1][0] a87[1][1] am90 a171"/>
    </vehicle>

    <vehicle id="85" depart="2971.00" arrival="3284.00">
        <route edges="a201 a201c a204a[0] a124 b12 b50[0] b50[1] b50[1]a a181 a18 a17 a71 a67 a80 a127 a77[1][0] a77ab a77bc a77cd a53cd a53[0] a78[1][1] a189[0] a189[1][0]+20000 a189[1][1] a188 a87[0] a20001+87[1][0] a87[1][1] am90 a171"/>
    </vehicle>

    <vehicle id="88" depart="2995.00" arrival="3286.00">
        <route edges="a201 a201c a204a[0] a124 b12 b50[0] b50[1] b50[1]a a181 a18 a17 a71 a67 a80 a127 a77[1][0] a77ab a77bc a77cd a53cd a53[0] a78[1][1] a189[0] a189[1][0]+20000 a189[1][1] a188 a87[0] a20001+87[1][0] a87[1][1] am90 a171"/>
    </vehicle>

    <vehicle id="86" depart="2972.00" arrival="3315.00">
        <route edges="a16 a37 a36 a40 a153 a87[0] a20001+87[1][0] a87[1][1] am90 am91 a88 a187 a191 a17 a71 b38[0] b38[0]a b38[1][0] b38[1][1] b38[1][1]a b56[1][0] b56[1][1] b5[1][0]+66 b5[1][1][1] b8 b3[1]"/>
    </vehicle>

    <vehicle id="89" depart="3113.00" arrival="3513.00">
        <route edges="a201 a201c a204a[0] a124 b12 b50[0] b50[1] b50[1]a a181 a18 a17 a71 a67 a80 a127 a77[1][0] a77ab a77bc a77cd a53cd a53[0] a78[1][1] a189[0] a189[1][0]+20000 a189[1][1] a188 a87[0] a20001+87[1][0] a87[1][1] am90 a171"/>
    </vehicle>

    <vehicle id="90" depart="3145.00" arrival="3560.00">
        <route edges="a16 a37 a36 a40 a153 a87[0] a20001+87[1][0] a87[1][1] am90 am91 a88 a187 a191 a17 a71 b38[0] b38[0]a b38[1][0] b38[1][1] b38[1][1]a b56[1][0] b56[1][1] b5[1][0]+66 b5[1][1][1] b8 b3[1]"/>
    </vehicle>

    <vehicle id="91" depart="3234.00" arrival="3684.00">
        <route edges="a16 a37 a36 a40 a153 a87[0] a20001+87[1][0] a87[1][1] am90 am91 a88 a187 a191 a17 a71 b38[0] b38[0]a b38[1][0] b38[1][1] b38[1][1]a b56[1][0] b56[1][1] b5[1][0]+66 b5[1][1][1] b8 b3[1]"/>
    </vehicle>

    <vehicle id="93" depart="3393.00" arrival="3727.00">
        <route edges="a201 a201c a204a[0] a124 b12 b50[0] b50[1] b50[1]a a181 a18 a17 a71 a67 a80 a127 a77[1][0] a77ab a77bc a77cd a53cd a53[0] a78[1][1] a189[0] a189[1][0]+20000 a189[1][1] a188 a87[0] a20001+87[1][0] a87[1][1] am90 a171"/>
    </vehicle>

    <vehicle id="96" depart="3462.00" arrival="3729.00">
        <route edges="a201 a201c a204a[0] a124 b12 b50[0] b50[1] b50[1]a a181 a18 a17 a71 a67 a80 a127 a77[1][0] a77ab a77bc a77cd a53cd a53[0] a78[1][1] a189[0] a189[1][0]+20000 a189[1][1] a188 a87[0] a20001+87[1][0] a87[1][1] am90 a171"/>
    </vehicle>

    <vehicle id="95" depart="3447.00" arrival="3731.00">