<?xml version="1.0" encoding="UTF-8"?>

<!-- generated on 2025-03-21 18:10:16 by Eclipse SUMO sumo Version 1.21.0
<sumoConfiguration xmlns:xsi="http://www.w3.org/2001/XMLSchema-instance" xsi:noNamespaceSchemaLocation="http://sumo.dlr.de/xsd/sumoConfiguration.xsd">

    <input>
        <net-file value="${STATICPATH}/joined_lanes.net.xml"/>
        <route-files value="${SIMULATIONPATH}/generatedRoutes.rou.xml"/>
        <additional-files value="${STATICPATH}/detectors.add.xml,${STATICPATH}/joined_vtypes.add.xml,${STATICPATH}/joined_tls.add.xml"/>
    </input>

    <output>
        <fcd-output value="${SIMULATIONPATH}/fcd.xml"/>
        <queue-output value="${SIMULATIONPATH}/queue.xml"/>
        <summary-output value="${SIMULATIONPATH}/summary.xml"/>
        <tripinfo-output value="${SIMULATIONPATH}/tripinfos.xml"/>
        <vehroute-output value="${SIMULATIONPATH}/vehroute.xml"/>
        <save-state.prefix value="configs\state"/>
    </output>

    <processing>
        <ignore-junction-blocker value="1"/>
        <ignore-route-errors value="true"/>
        <time-to-teleport value="-1"/>
    </processing>

    <report>
        <log value="C:/Users/fabio/Desktop/sumo_log.txt"/>
        <no-step-log value="true"/>
    </report>

    <emissions>
        <phemlight-path value="configs\./PHEMlight/"/>
    </emissions>

    <traci_server>
        <remote-port value="60320"/>
    </traci_server>

</sumoConfiguration>
-->

<tripinfos xmlns:xsi="http://www.w3.org/2001/XMLSchema-instance" xsi:noNamespaceSchemaLocation="http://sumo.dlr.de/xsd/tripinfo_file.xsd">
    <tripinfo id="0" depart="2.00" departLane="a161_0" departPos="5.10" departSpeed="0.00" departDelay="0.80" arrival="253.00" arrivalLane="b2[1][1][1]b_0" arrivalPos="325.74" arrivalSpeed="14.32" duration="251.00" routeLength="2873.23" waitingTime="23.00" waitingCount="3" stopTime="0.00" timeLoss="53.07" rerouteNo="0" devices="vehroute_0 tripinfo_0 fcd_0" vType="DEFAULT_VEHTYPE" speedFactor="1.06" vaporized=""/>
    <tripinfo id="1" depart="5.00" departLane="a210_0" departPos="5.10" departSpeed="0.00" departDelay="0.55" arrival="322.00" arrivalLane="b28a_0" arrivalPos="130.99" arrivalSpeed="12.67" duration="317.00" routeLength="3275.74" waitingTime="18.00" waitingCount="2" stopTime="0.00" timeLoss="60.94" rerouteNo="0" devices="vehroute_1 tripinfo_1 fcd_1" vType="DEFAULT_VEHTYPE" speedFactor="0.94" vaporized=""/>
    <tripinfo id="3" depart="73.00" departLane="a161_0" departPos="5.10" departSpeed="0.00" departDelay="0.91" arrival="377.00" arrivalLane="b2[1][1][1]b_0" arrivalPos="325.74" arrivalSpeed="14.08" duration="304.00" routeLength="2868.74" waitingTime="81.00" waitingCount="2" stopTime="0.00" timeLoss="111.01" rerouteNo="0" devices="vehroute_3 tripinfo_3 fcd_3" vType="DEFAULT_VEHTYPE" speedFactor="1.08" vaporized=""/>
    <tripinfo id="2" depart="64.00" departLane="a210_0" departPos="5.10" departSpeed="0.00" departDelay="0.32" arrival="444.00" arrivalLane="b28a_0" arrivalPos="130.99" arrivalSpeed="13.30" duration="380.00" routeLength="3275.74" waitingTime="91.00" waitingCount="5" stopTime="0.00" timeLoss="143.21" rerouteNo="0" devices="vehroute_2 tripinfo_2 fcd_2" vType="DEFAULT_VEHTYPE" speedFactor="1.01" vaporized=""/>
    <tripinfo id="4" depart="83.00" departLane="a210_0" departPos="5.10" departSpeed="0.00" departDelay="0.58" arrival="447.00" arrivalLane="b28a_0" arrivalPos="130.99" arrivalSpeed="13.82" duration="364.00" routeLength="3275.74" waitingTime="80.00" waitingCount="4" stopTime="0.00" timeLoss="131.25" rerouteNo="0" devices="vehroute_4 tripinfo_4 fcd_4" vType="DEFAULT_VEHTYPE" speedFactor="1.03" vaporized=""/>
    <tripinfo id="6" depart="269.00" departLane="a161_0" departPos="5.10" departSpeed="0.00" departDelay="0.33" arrival="621.00" arrivalLane="b2[1][1][1]b_0" arrivalPos="325.74" arrivalSpeed="13.94" duration="352.00" routeLength="2873.23" waitingTime="119.00" waitingCount="3" stopTime="0.00" timeLoss="151.70" rerouteNo="0" devices="vehroute_6 tripinfo_6 fcd_6" vType="DEFAULT_VEHTYPE" speedFactor="1.05" vaporized=""/>
    <tripinfo id="7" depart="288.00" departLane="a161_0" departPos="5.10" departSpeed="0.00" departDelay="0.12" arrival="624.00" arrivalLane="b2[1][1][1]b_0" arrivalPos="325.74" arrivalSpeed="11.77" duration="336.00" routeLength="2868.74" waitingTime="66.00" waitingCount="2" stopTime="0.00" timeLoss="100.00" rerouteNo="0" devices="vehroute_7 tripinfo_7 fcd_7" vType="DEFAULT_VEHTYPE" speedFactor="0.89" vaporized=""/>
    <tripinfo id="5" depart="228.00" departLane="a161_0" departPos="5.10" departSpeed="0.00" departDelay="0.81" arrival="631.00" arrivalLane="b2[1][1][1]b_0" arrivalPos="325.74" arrivalSpeed="10.97" duration="403.00" routeLength="2865.78" waitingTime="113.00" waitingCount="3" stopTime="0.00" timeLoss="151.76" rerouteNo="0" devices="vehroute_5 tripinfo_5 fcd_5" vType="DEFAULT_VEHTYPE" speedFactor="0.83" vaporized=""/>
    <tripinfo id="10" depart="432.00" departLane="a161_0" departPos="5.10" departSpeed="0.00" departDelay="0.62" arrival="745.00" arrivalLane="b2[1][1][1]b_0" arrivalPos="325.74" arrivalSpeed="14.82" duration="313.00" routeLength="2873.23" waitingTime="82.00" waitingCount="4" stopTime="0.00" timeLoss="120.59" rerouteNo="0" devices="vehroute_10 tripinfo_10 fcd_10" vType="DEFAULT_VEHTYPE" speedFactor="1.09" vaporized=""/>
    <tripinfo id="11" depart="439.00" departLane="a161_0" departPos="5.10" departSpeed="0.00" departDelay="0.66" arrival="746.00" arrivalLane="b2[1][1][1]b_0" arrivalPos="325.74" arrivalSpeed="13.10" duration="307.00" routeLength="2868.74" waitingTime="68.00" waitingCount="3" stopTime="0.00" timeLoss="103.71" rerouteNo="0" devices="vehroute_11 tripinfo_11 fcd_11" vType="DEFAULT_VEHTYPE" speedFactor="1.03" vaporized=""/>
    <tripinfo id="9" depart="424.00" departLane="a161_0" departPos="5.10" departSpeed="0.00" departDelay="0.46" arrival="750.00" arrivalLane="b2[1][1][1]b_1" arrivalPos="325.74" arrivalSpeed="11.68" duration="326.00" routeLength="2865.78" waitingTime="46.00" waitingCount="3" stopTime="0.00" timeLoss="82.65" rerouteNo="0" devices="vehroute_9 tripinfo_9 fcd_9" vType="DEFAULT_VEHTYPE" speedFactor="0.86" vaporized=""/>
    <tripinfo id="8" depart="335.00" departLane="a161_0" departPos="5.10" departSpeed="0.00" departDelay="0.46" arrival="751.00" arrivalLane="b2[1][1][1]b_0" arrivalPos="325.74" arrivalSpeed="12.48" duration="416.00" routeLength="2868.74" waitingTime="153.00" waitingCount="4" stopTime="0.00" timeLoss="193.00" rerouteNo="0" devices="vehroute_8 tripinfo_8 fcd_8" vType="DEFAULT_VEHTYPE" speedFactor="0.94" vaporized=""/>
    <tripinfo id="12" depart="440.00" departLane="a210_0" departPos="5.10" departSpeed="0.00" departDelay="0.67" arrival="824.00" arrivalLane="b28a_0" arrivalPos="130.99" arrivalSpeed="14.07" duration="384.00" routeLength="3275.74" waitingTime="97.00" waitingCount="4" stopTime="0.00" timeLoss="154.24" rerouteNo="0" devices="vehroute_12 tripinfo_12 fcd_12" vType="DEFAULT_VEHTYPE" speedFactor="1.05" vaporized=""/>
    <tripinfo id="13" depart="502.00" departLane="a161_0" departPos="5.10" departSpeed="0.00" departDelay="0.89" arrival="869.00" arrivalLane="b2[1][1][1]b_0" arrivalPos="325.74" arrivalSpeed="14.45" duration="367.00" routeLength="2868.74" waitingTime="137.00" waitingCount="4" stopTime="0.00" timeLoss="181.26" rerouteNo="0" devices="vehroute_13 tripinfo_13 fcd_13" vType="DEFAULT_VEHTYPE" speedFactor="1.12" vaporized=""/>
    <tripinfo id="14" depart="509.00" departLane="a161_0" departPos="5.10" departSpeed="0.00" departDelay="0.40" arrival="873.00" arrivalLane="b2[1][1][1]b_1" arrivalPos="325.74" arrivalSpeed="12.85" duration="364.00" routeLength="2870.27" waitingTime="106.00" waitingCount="5" stopTime="0.00" timeLoss="152.37" rerouteNo="0" devices="vehroute_14 tripinfo_14 fcd_14" vType="DEFAULT_VEHTYPE" speedFactor="0.99" vaporized=""/>
    <tripinfo id="17" depart="583.00" departLane="a161_0" departPos="5.10" departSpeed="0.00" departDelay="0.65" arrival="874.00" arrivalLane="b2[1][1][1]b_2" arrivalPos="325.74" arrivalSpeed="12.27" duration="291.00" routeLength="2868.74" waitingTime="34.00" waitingCount="2" stopTime="0.00" timeLoss="69.05" rerouteNo="0" devices="vehroute_17 tripinfo_17 fcd_17" vType="DEFAULT_VEHTYPE" speedFactor="0.94" vaporized=""/>
    <tripinfo id="15" depart="554.00" departLane="a161_0" departPos="5.10" departSpeed="0.00" departDelay="0.35" arrival="876.00" arrivalLane="b2[1][1][1]b_0" arrivalPos="325.74" arrivalSpeed="11.81" duration="322.00" routeLength="2865.78" waitingTime="58.00" waitingCount="4" stopTime="0.00" timeLoss="96.40" rerouteNo="0" devices="vehroute_15 tripinfo_15 fcd_15" vType="DEFAULT_VEHTYPE" speedFactor="0.93" vaporized=""/>
    <tripinfo id="16" depart="574.00" departLane="a161_0" departPos="5.10" departSpeed="0.00" departDelay="0.51" arrival="878.00" arrivalLane="b2[1][1][1]b_1" arrivalPos="325.74" arrivalSpeed="10.94" duration="304.00" routeLength="2868.74" waitingTime="35.00" waitingCount="2" stopTime="0.00" timeLoss="65.82" rerouteNo="0" devices="vehroute_16 tripinfo_16 fcd_16" vType="DEFAULT_VEHTYPE" speedFactor="0.88" vaporized=""/>
    <tripinfo id="19" depart="617.00" departLane="a161_0" departPos="5.10" departSpeed="0.00" departDelay="2.61" arrival="993.00" arrivalLane="b2[1][1][1]b_0" arrivalPos="325.74" arrivalSpeed="14.90" duration="376.00" routeLength="2868.74" waitingTime="149.00" waitingCount="5" stopTime="0.00" timeLoss="195.76" rerouteNo="0" devices="vehroute_19 tripinfo_19 fcd_19" vType="DEFAULT_VEHTYPE" speedFactor="1.16" vaporized=""/>
    <tripinfo id="20" depart="640.00" departLane="a161_0" departPos="5.10" departSpeed="0.00" departDelay="0.04" arrival="997.00" arrivalLane="b2[1][1][1]b_0" arrivalPos="325.74" arrivalSpeed="13.80" duration="357.00" routeLength="2865.78" waitingTime="105.00" waitingCount="5" stopTime="0.00" timeLoss="151.58" rerouteNo="0" devices="vehroute_20 tripinfo_20 fcd_20" vType="DEFAULT_VEHTYPE" speedFactor="1.02" vaporized=""/>
    <tripinfo id="18" depart="614.00" departLane="a161_0" departPos="5.10" departSpeed="0.00" departDelay="0.28" arrival="998.00" arrivalLane="b2[1][1][1]b_1" arrivalPos="325.74" arrivalSpeed="12.83" duration="384.00" routeLength="2870.27" waitingTime="111.00" waitingCount="6" stopTime="0.00" timeLoss="160.66" rerouteNo="0" devices="vehroute_18 tripinfo_18 fcd_18" vType="DEFAULT_VEHTYPE" speedFactor="0.94" vaporized=""/>
    <tripinfo id="21" depart="691.00" departLane="a161_0" departPos="5.10" departSpeed="0.00" departDelay="0.58" arrival="999.00" arrivalLane="b2[1][1][1]b_0" arrivalPos="325.74" arrivalSpeed="12.74" duration="308.00" routeLength="2868.74" waitingTime="57.00" waitingCount="4" stopTime="0.00" timeLoss="101.13" rerouteNo="0" devices="vehroute_21 tripinfo_21 fcd_21" vType="DEFAULT_VEHTYPE" speedFactor="1.01" vaporized=""/>
    <tripinfo id="22" depart="763.00" departLane="a210_0" departPos="5.10" departSpeed="0.00" departDelay="0.68" arrival="1068.00" arrivalLane="b28a_0" arrivalPos="130.99" arrivalSpeed="13.18" duration="305.00" routeLength="3275.74" waitingTime="20.00" waitingCount="2" stopTime="0.00" timeLoss="58.42" rerouteNo="0" devices="vehroute_22 tripinfo_22 fcd_22" vType="DEFAULT_VEHTYPE" speedFactor="0.97" vaporized=""/>
    <tripinfo id="24" depart="806.00" departLane="a210_0" departPos="5.10" departSpeed="0.00" departDelay="0.99" arrival="1206.00" arrivalLane="b28a_0" arrivalPos="130.99" arrivalSpeed="11.05" duration="400.00" routeLength="3275.74" waitingTime="67.00" waitingCount="3" stopTime="0.00" timeLoss="109.33" rerouteNo="0" devices="vehroute_24 tripinfo_24 fcd_24" vType="DEFAULT_VEHTYPE" speedFactor="0.83" vaporized=""/>
    <tripinfo id="28" depart="878.00" departLane="a161_0" departPos="5.10" departSpeed="0.00" departDelay="0.84" arrival="1219.00" arrivalLane="b2[1][1][1]b_0" arrivalPos="325.74" arrivalSpeed="14.77" duration="341.00" routeLength="2865.78" waitingTime="101.00" waitingCount="3" stopTime="0.00" timeLoss="155.84" rerouteNo="0" devices="vehroute_28 tripinfo_28 fcd_28" vType="DEFAULT_VEHTYPE" speedFactor="1.13" vaporized=""/>
    <tripinfo id="26" depart="838.00" departLane="a161_0" departPos="5.10" departSpeed="0.00" departDelay="0.82" arrival="1235.00" arrivalLane="b2[1][1][1]b_0" arrivalPos="325.74" arrivalSpeed="11.75" duration="397.00" routeLength="2865.78" waitingTime="116.00" waitingCount="3" stopTime="0.00" timeLoss="168.57" rerouteNo="0" devices="vehroute_26 tripinfo_26 fcd_26" vType="DEFAULT_VEHTYPE" speedFactor="0.92" vaporized=""/>
    <tripinfo id="27" depart="861.00" departLane="a161_0" departPos="5.10" departSpeed="0.00" departDelay="0.40" arrival="1235.00" arrivalLane="b2[1][1][1]b_1" arrivalPos="325.74" arrivalSpeed="13.11" duration="374.00" routeLength="2873.23" waitingTime="111.00" waitingCount="3" stopTime="0.00" timeLoss="153.28" rerouteNo="0" devices="vehroute_27 tripinfo_27 fcd_27" vType="DEFAULT_VEHTYPE" speedFactor="0.95" vaporized=""/>
    <tripinfo id="25" depart="819.00" departLane="a161_0" departPos="5.10" departSpeed="0.00" departDelay="0.51" arrival="1238.00" arrivalLane="b2[1][1][1]b_0" arrivalPos="325.74" arrivalSpeed="11.44" duration="419.00" routeLength="2865.78" waitingTime="138.00" waitingCount="4" stopTime="0.00" timeLoss="179.46" rerouteNo="0" devices="vehroute_25 tripinfo_25 fcd_25" vType="DEFAULT_VEHTYPE" speedFactor="0.87" vaporized=""/>
    <tripinfo id="23" depart="764.00" departLane="a161_0" departPos="5.10" departSpeed="0.00" departDelay="0.86" arrival="1239.00" arrivalLane="b2[1][1][1]b_1" arrivalPos="325.74" arrivalSpeed="12.11" duration="475.00" routeLength="2873.23" waitingTime="190.00" waitingCount="5" stopTime="0.00" timeLoss="239.46" rerouteNo="0" devices="vehroute_23 tripinfo_23 fcd_23" vType="DEFAULT_VEHTYPE" speedFactor="0.89" vaporized=""/>
    <tripinfo id="30" depart="956.00" departLane="a161_0" departPos="5.10" departSpeed="0.00" departDelay="0.61" arrival="1271.00" arrivalLane="b2[1][1][1]b_0" arrivalPos="325.74" arrivalSpeed="15.98" duration="315.00" routeLength="2870.27" waitingTime="94.00" waitingCount="4" stopTime="0.00" timeLoss="136.78" rerouteNo="0" devices="vehroute_30 tripinfo_30 fcd_30" vType="DEFAULT_VEHTYPE" speedFactor="1.18" vaporized=""/>
    <tripinfo id="31" depart="1000.00" departLane="a161_0" departPos="5.10" departSpeed="0.00" departDelay="0.09" arrival="1341.00" arrivalLane="b2[1][1][1]b_0" arrivalPos="325.74" arrivalSpeed="15.62" duration="341.00" routeLength="2865.78" waitingTime="111.00" waitingCount="3" stopTime="0.00" timeLoss="160.04" rerouteNo="0" devices="vehroute_31 tripinfo_31 fcd_31" vType="DEFAULT_VEHTYPE" speedFactor="1.15" vaporized=""/>
    <tripinfo id="32" depart="1007.00" departLane="a161_0" departPos="5.10" departSpeed="0.00" departDelay="0.07" arrival="1352.00" arrivalLane="b2[1][1][1]b_0" arrivalPos="325.74" arrivalSpeed="13.42" duration="345.00" routeLength="2868.74" waitingTime="92.00" waitingCount="2" stopTime="0.00" timeLoss="136.97" rerouteNo="0" devices="vehroute_32 tripinfo_32 fcd_32" vType="DEFAULT_VEHTYPE" speedFactor="1.01" vaporized=""/>
    <tripinfo id="29" depart="926.00" departLane="a161_0" departPos="5.10" departSpeed="0.00" departDelay="0.63" arrival="1354.00" arrivalLane="b2[1][1][1]b_0" arrivalPos="325.74" arrivalSpeed="12.01" duration="428.00" routeLength="2868.74" waitingTime="171.00" waitingCount="3" stopTime="0.00" timeLoss="203.93" rerouteNo="0" devices="vehroute_29 tripinfo_29 fcd_29" vType="DEFAULT_VEHTYPE" speedFactor="0.93" vaporized=""/>
    <tripinfo id="33" depart="1071.00" departLane="a210_0" departPos="5.10" departSpeed="0.00" departDelay="0.52" arrival="1415.00" arrivalLane="b28a_0" arrivalPos="130.99" arrivalSpeed="15.92" duration="344.00" routeLength="3275.74" waitingTime="86.00" waitingCount="4" stopTime="0.00" timeLoss="139.93" rerouteNo="0" devices="vehroute_33 tripinfo_33 fcd_33" vType="DEFAULT_VEHTYPE" speedFactor="1.17" vaporized=""/>
    <tripinfo id="35" depart="1130.00" departLane="a210_0" departPos="5.10" departSpeed="0.00" departDelay="0.58" arrival="1426.00" arrivalLane="b28a_0" arrivalPos="130.99" arrivalSpeed="13.87" duration="296.00" routeLength="3275.74" waitingTime="11.00" waitingCount="2" stopTime="0.00" timeLoss="59.36" rerouteNo="0" devices="vehroute_35 tripinfo_35 fcd_35" vType="DEFAULT_VEHTYPE" speedFactor="1.02" vaporized=""/>
    <tripinfo id="37" depart="1162.00" departLane="a161_0" departPos="5.10" departSpeed="0.00" departDelay="0.90" arrival="1462.00" arrivalLane="b2[1][1][1]b_0" arrivalPos="325.74" arrivalSpeed="16.09" duration="300.00" routeLength="2865.78" waitingTime="69.00" waitingCount="3" stopTime="0.00" timeLoss="122.69" rerouteNo="0" devices="vehroute_37 tripinfo_37 fcd_37" vType="DEFAULT_VEHTYPE" speedFactor="1.18" vaporized=""/>
    <tripinfo id="34" depart="1084.00" departLane="a161_0" departPos="5.10" departSpeed="0.00" departDelay="0.93" arrival="1473.00" arrivalLane="b2[1][1][1]b_0" arrivalPos="325.74" arrivalSpeed="12.84" duration="389.00" routeLength="2873.23" waitingTime="141.00" waitingCount="4" stopTime="0.00" timeLoss="178.53" rerouteNo="0" devices="vehroute_34 tripinfo_34 fcd_34" vType="DEFAULT_VEHTYPE" speedFactor="0.99" vaporized=""/>
    <tripinfo id="36" depart="1144.00" departLane="a161_0" departPos="5.10" departSpeed="0.00" departDelay="0.89" arrival="1477.00" arrivalLane="b2[1][1][1]b_0" arrivalPos="325.74" arrivalSpeed="12.99" duration="333.00" routeLength="2865.78" waitingTime="80.00" waitingCount="3" stopTime="0.00" timeLoss="118.42" rerouteNo="0" devices="vehroute_36 tripinfo_36 fcd_36" vType="DEFAULT_VEHTYPE" speedFactor="0.97" vaporized=""/>
    <tripinfo id="38" depart="1231.00" departLane="a161_0" departPos="5.10" departSpeed="0.00" departDelay="0.97" arrival="1589.00" arrivalLane="b2[1][1][1]b_0" arrivalPos="325.74" arrivalSpeed="14.67" duration="358.00" routeLength="2873.23" waitingTime="128.00" waitingCount="4" stopTime="0.00" timeLoss="168.07" rerouteNo="0" devices="vehroute_38 tripinfo_38 fcd_38" vType="DEFAULT_VEHTYPE" speedFactor="1.10" vaporized=""/>
    <tripinfo id="39" depart="1247.00" departLane="a161_0" departPos="5.10" departSpeed="0.00" departDelay="0.24" arrival="1602.00" arrivalLane="b2[1][1][1]b_0" arrivalPos="325.74" arrivalSpeed="11.36" duration="355.00" routeLength="2865.78" waitingTime="89.00" waitingCount="2" stopTime="0.00" timeLoss="123.18" rerouteNo="0" devices="vehroute_39 tripinfo_39 fcd_39" vType="DEFAULT_VEHTYPE" speedFactor="0.90" vaporized=""/>
    <tripinfo id="40" depart="1314.00" departLane="a210_0" departPos="5.10" departSpeed="0.00" departDelay="0.73" arrival="1674.00" arrivalLane="b28a_0" arrivalPos="130.99" arrivalSpeed="13.17" duration="360.00" routeLength="3275.74" waitingTime="75.00" waitingCount="5" stopTime="0.00" timeLoss="126.82" rerouteNo="0" devices="vehroute_40 tripinfo_40 fcd_40" vType="DEFAULT_VEHTYPE" speedFactor="1.03" vaporized=""/>
    <tripinfo id="42" depart="1378.00" departLane="a161_0" departPos="5.10" departSpeed="0.00" departDelay="0.91" arrival="1726.00" arrivalLane="b2[1][1][1]b_0" arrivalPos="325.74" arrivalSpeed="14.83" duration="348.00" routeLength="2873.23" waitingTime="109.00" waitingCount="5" stopTime="0.00" timeLoss="156.48" rerouteNo="0" devices="vehroute_42 tripinfo_42 fcd_42" vType="DEFAULT_VEHTYPE" speedFactor="1.09" vaporized=""/>
    <tripinfo id="44" depart="1408.00" departLane="a161_0" departPos="5.10" departSpeed="0.00" departDelay="0.25" arrival="1727.00" arrivalLane="b2[1][1][1]b_1" arrivalPos="325.74" arrivalSpeed="13.72" duration="319.00" routeLength="2865.78" waitingTime="75.00" waitingCount="4" stopTime="0.00" timeLoss="118.87" rerouteNo="0" devices="vehroute_44 tripinfo_44 fcd_44" vType="DEFAULT_VEHTYPE" speedFactor="1.04" vaporized=""/>
    <tripinfo id="41" depart="1372.00" departLane="a210_0" departPos="5.10" departSpeed="0.00" departDelay="0.73" arrival="1803.00" arrivalLane="b28a_0" arrivalPos="130.99" arrivalSpeed="12.56" duration="431.00" routeLength="3275.74" waitingTime="132.00" waitingCount="5" stopTime="0.00" timeLoss="180.43" rerouteNo="0" devices="vehroute_41 tripinfo_41 fcd_41" vType="DEFAULT_VEHTYPE" speedFactor="0.96" vaporized=""/>
    <tripinfo id="43" depart="1392.00" departLane="a210_0" departPos="5.10" departSpeed="0.00" departDelay="0.74" arrival="1805.00" arrivalLane="b28a_0" arrivalPos="130.99" arrivalSpeed="13.17" duration="413.00" routeLength="3275.74" waitingTime="115.00" waitingCount="5" stopTime="0.00" timeLoss="181.49" rerouteNo="0" devices="vehroute_43 tripinfo_43 fcd_43" vType="DEFAULT_VEHTYPE" speedFactor="1.04" vaporized=""/>
    <tripinfo id="45" depart="1430.00" departLane="a210_0" departPos="5.10" departSpeed="0.00" departDelay="0.16" arrival="1807.00" arrivalLane="b28a_0" arrivalPos="130.99" arrivalSpeed="14.40" duration="377.00" routeLength="3275.74" waitingTime="87.00" waitingCount="4" stopTime="0.00" timeLoss="156.17" rerouteNo="0" devices="vehroute_45 tripinfo_45 fcd_45" vType="DEFAULT_VEHTYPE" speedFactor="1.09" vaporized=""/>
    <tripinfo id="46" depart="1475.00" departLane="a210_0" departPos="5.10" departSpeed="0.00" departDelay="0.88" arrival="1811.00" arrivalLane="b28a_0" arrivalPos="130.99" arrivalSpeed="13.72" duration="336.00" routeLength="3275.74" waitingTime="35.00" waitingCount="2" stopTime="0.00" timeLoss="94.67" rerouteNo="0" devices="vehroute_46 tripinfo_46 fcd_46" vType="DEFAULT_VEHTYPE" speedFactor="1.00" vaporized=""/>
    <tripinfo id="48" depart="1550.00" departLane="a210_0" departPos="5.10" departSpeed="0.00" departDelay="0.79" arrival="1935.00" arrivalLane="b28a_0" arrivalPos="130.99" arrivalSpeed="11.26" duration="385.00" routeLength="3275.74" waitingTime="66.00" waitingCount="3" stopTime="0.00" timeLoss="110.70" rerouteNo="0" devices="vehroute_48 tripinfo_48 fcd_48" vType="DEFAULT_VEHTYPE" speedFactor="0.88" vaporized=""/>
    <tripinfo id="51" depart="1726.00" departLane="a161_0" departPos="5.10" departSpeed="0.00" departDelay="0.32" arrival="2001.00" arrivalLane="b2[1][1][1]b_1" arrivalPos="325.74" arrivalSpeed="15.08" duration="275.00" routeLength="2865.78" waitingTime="49.00" waitingCount="3" stopTime="0.00" timeLoss="96.63" rerouteNo="0" devices="vehroute_51 tripinfo_51 fcd_51" vType="DEFAULT_VEHTYPE" speedFactor="1.17" vaporized=""/>
    <tripinfo id="47" depart="1522.00" departLane="a161_0" departPos="5.10" departSpeed="0.00" departDelay="0.32" arrival="2008.00" arrivalLane="b2[1][1][1]b_0" arrivalPos="325.74" arrivalSpeed="11.48" duration="486.00" routeLength="2873.23" waitingTime="210.00" waitingCount="5" stopTime="0.00" timeLoss="253.59" rerouteNo="0" devices="vehroute_47 tripinfo_47 fcd_47" vType="DEFAULT_VEHTYPE" speedFactor="0.90" vaporized=""/>
    <tripinfo id="50" depart="1722.00" departLane="a210_0" departPos="5.10" departSpeed="0.00" departDelay="0.36" arrival="2063.00" arrivalLane="b28a_0" arrivalPos="130.99" arrivalSpeed="11.75" duration="341.00" routeLength="3275.74" waitingTime="17.00" waitingCount="3" stopTime="0.00" timeLoss="59.64" rerouteNo="0" devices="vehroute_50 tripinfo_50 fcd_50" vType="DEFAULT_VEHTYPE" speedFactor="0.85" vaporized=""/>
    <tripinfo id="52" depart="1745.00" departLane="a210_0" departPos="5.10" departSpeed="0.00" departDelay="0.43" arrival="2064.00" arrivalLane="b28a_0" arrivalPos="130.99" arrivalSpeed="12.63" duration="319.00" routeLength="3275.74" waitingTime="12.00" waitingCount="2" stopTime="0.00" timeLoss="82.55" rerouteNo="0" devices="vehroute_52 tripinfo_52 fcd_52" vType="DEFAULT_VEHTYPE" speedFactor="1.02" vaporized=""/>
    <tripinfo id="49" depart="1710.00" departLane="a161_0" departPos="5.10" departSpeed="0.00" departDelay="0.41" arrival="2135.00" arrivalLane="b2[1][1][1]b_0" arrivalPos="325.74" arrivalSpeed="11.38" duration="425.00" routeLength="2865.78" waitingTime="135.00" waitingCount="4" stopTime="0.00" timeLoss="179.10" rerouteNo="0" devices="vehroute_49 tripinfo_49 fcd_49" vType="DEFAULT_VEHTYPE" speedFactor="0.85" vaporized=""/>
    <tripinfo id="54" depart="1822.00" departLane="a210_0" departPos="5.10" departSpeed="0.00" departDelay="0.01" arrival="2167.00" arrivalLane="b28a_0" arrivalPos="130.99" arrivalSpeed="13.92" duration="345.00" routeLength="3275.74" waitingTime="58.00" waitingCount="3" stopTime="0.00" timeLoss="105.99" rerouteNo="0" devices="vehroute_54 tripinfo_54 fcd_54" vType="DEFAULT_VEHTYPE" speedFactor="1.00" vaporized=""/>
    <tripinfo id="55" depart="1825.00" departLane="a210_0" departPos="5.10" departSpeed="0.00" departDelay="0.38" arrival="2171.00" arrivalLane="b28a_0" arrivalPos="130.99" arrivalSpeed="12.82" duration="346.00" routeLength="3275.74" waitingTime="55.00" waitingCount="3" stopTime="0.00" timeLoss="105.82" rerouteNo="0" devices="vehroute_55 tripinfo_55 fcd_55" vType="DEFAULT_VEHTYPE" speedFactor="1.00" vaporized=""/>
    <tripinfo id="53" depart="1805.00" departLane="a161_0" departPos="5.10" departSpeed="0.00" departDelay="0.85" arrival="2205.00" arrivalLane="b2[1][1][1]b_0" arrivalPos="325.74" arrivalSpeed="14.15" duration="400.00" routeLength="2873.23" waitingTime="170.00" waitingCount="4" stopTime="0.00" timeLoss="208.97" rerouteNo="0" devices="vehroute_53 tripinfo_53 fcd_53" vType="DEFAULT_VEHTYPE" speedFactor="1.10" vaporized=""/>
    <tripinfo id="58" depart="1944.00" departLane="a161_0" departPos="5.10" departSpeed="0.00" departDelay="0.96" arrival="2212.00" arrivalLane="b2[1][1][1]b_0" arrivalPos="325.74" arrivalSpeed="13.42" duration="268.00" routeLength="2873.23" waitingTime="35.00" waitingCount="2" stopTime="0.00" timeLoss="63.31" rerouteNo="0" devices="vehroute_58 tripinfo_58 fcd_58" vType="DEFAULT_VEHTYPE" speedFactor="1.02" vaporized=""/>
    <tripinfo id="56" depart="1836.00" departLane="a161_0" departPos="5.10" departSpeed="0.00" departDelay="0.99" arrival="2219.00" arrivalLane="b2[1][1][1]b_0" arrivalPos="325.74" arrivalSpeed="11.52" duration="383.00" routeLength="2865.78" waitingTime="114.00" waitingCount="2" stopTime="0.00" timeLoss="150.63" rerouteNo="0" devices="vehroute_56 tripinfo_56 fcd_56" vType="DEFAULT_VEHTYPE" speedFactor="0.90" vaporized=""/>
    <tripinfo id="57" depart="1917.00" departLane="a210_0" departPos="5.10" departSpeed="0.00" departDelay="0.07" arrival="2279.00" arrivalLane="b28a_0" arrivalPos="130.99" arrivalSpeed="14.87" duration="362.00" routeLength="3275.74" waitingTime="98.00" waitingCount="5" stopTime="0.00" timeLoss="152.02" rerouteNo="0" devices="vehroute_57 tripinfo_57 fcd_57" vType="DEFAULT_VEHTYPE" speedFactor="1.14" vaporized=""/>
    <tripinfo id="60" depart="2040.00" departLane="a161_0" departPos="5.10" departSpeed="0.00" departDelay="0.33" arrival="2329.00" arrivalLane="b2[1][1][1]b_0" arrivalPos="325.74" arrivalSpeed="14.72" duration="289.00" routeLength="2868.74" waitingTime="55.00" waitingCount="4" stopTime="0.00" timeLoss="95.47" rerouteNo="0" devices="vehroute_60 tripinfo_60 fcd_60" vType="DEFAULT_VEHTYPE" speedFactor="1.08" vaporized=""/>
    <tripinfo id="59" depart="2032.00" departLane="a161_0" departPos="5.10" departSpeed="0.00" departDelay="0.01" arrival="2338.00" arrivalLane="b2[1][1][1]b_0" arrivalPos="325.74" arrivalSpeed="13.27" duration="306.00" routeLength="2873.23" waitingTime="55.00" waitingCount="3" stopTime="0.00" timeLoss="89.57" rerouteNo="0" devices="vehroute_59 tripinfo_59 fcd_59" vType="DEFAULT_VEHTYPE" speedFactor="0.97" vaporized=""/>
    <tripinfo id="63" depart="2071.00" departLane="a161_0" departPos="5.10" departSpeed="0.00" departDelay="0.41" arrival="2339.00" arrivalLane="b2[1][1][1]b_1" arrivalPos="325.74" arrivalSpeed="13.68" duration="268.00" routeLength="2868.74" waitingTime="30.00" waitingCount="1" stopTime="0.00" timeLoss="56.22" rerouteNo="0" devices="vehroute_63 tripinfo_63 fcd_63" vType="DEFAULT_VEHTYPE" speedFactor="0.99" vaporized=""/>
    <tripinfo id="61" depart="2063.00" departLane="a210_0" departPos="5.10" departSpeed="0.00" departDelay="0.05" arrival="2403.00" arrivalLane="b28a_0" arrivalPos="130.99" arrivalSpeed="15.13" duration="340.00" routeLength="3275.74" waitingTime="84.00" waitingCount="3" stopTime="0.00" timeLoss="126.04" rerouteNo="0" devices="vehroute_61 tripinfo_61 fcd_61" vType="DEFAULT_VEHTYPE" speedFactor="1.12" vaporized=""/>
    <tripinfo id="62" depart="2069.00" departLane="a210_0" departPos="5.10" departSpeed="0.00" departDelay="0.49" arrival="2411.00" arrivalLane="b28a_0" arrivalPos="130.99" arrivalSpeed="13.05" duration="342.00" routeLength="3275.74" waitingTime="60.00" waitingCount="2" stopTime="0.00" timeLoss="105.15" rerouteNo="0" devices="vehroute_62 tripinfo_62 fcd_62" vType="DEFAULT_VEHTYPE" speedFactor="1.02" vaporized=""/>
    <tripinfo id="68" depart="2231.00" departLane="a161_0" departPos="5.10" departSpeed="0.00" departDelay="0.81" arrival="2458.00" arrivalLane="b2[1][1][1]b_0" arrivalPos="325.74" arrivalSpeed="13.88" duration="227.00" routeLength="2868.74" waitingTime="1.00" waitingCount="1" stopTime="0.00" timeLoss="25.85" rerouteNo="0" devices="vehroute_68 tripinfo_68 fcd_68" vType="DEFAULT_VEHTYPE" speedFactor="1.04" vaporized=""/>
    <tripinfo id="66" depart="2183.00" departLane="a161_0" departPos="5.10" departSpeed="0.00" departDelay="0.06" arrival="2464.00" arrivalLane="b2[1][1][1]b_0" arrivalPos="325.74" arrivalSpeed="12.12" duration="281.00" routeLength="2868.74" waitingTime="18.00" waitingCount="2" stopTime="0.00" timeLoss="50.41" rerouteNo="0" devices="vehroute_66 tripinfo_66 fcd_66" vType="DEFAULT_VEHTYPE" speedFactor="0.91" vaporized=""/>
    <tripinfo id="67" depart="2191.00" departLane="a161_0" departPos="5.10" departSpeed="0.00" departDelay="0.45" arrival="2466.00" arrivalLane="b2[1][1][1]b_0" arrivalPos="325.74" arrivalSpeed="12.52" duration="275.00" routeLength="2865.78" waitingTime="10.00" waitingCount="2" stopTime="0.00" timeLoss="45.74" rerouteNo="0" devices="vehroute_67 tripinfo_67 fcd_67" vType="DEFAULT_VEHTYPE" speedFactor="0.91" vaporized=""/>