<?xml version="1.0" encoding="UTF-8"?>

<!-- generated on 2025-03-21 17:43:51 by Eclipse SUMO sumo Version 1.21.0
<sumoConfiguration xmlns:xsi="http://www.w3.org/2001/XMLSchema-instance" xsi:noNamespaceSchemaLocation="http://sumo.dlr.de/xsd/sumoConfiguration.xsd">

    <input>
        <net-file value="${STATICPATH}/joined_lanes.net.xml"/>
        <route-files value="${SIMULATIONPATH}/generatedRoutes.rou.xml"/>
        <additional-files value="${STATICPATH}/detectors.add.xml,${STATICPATH}/joined_vtypes.add.xml,${STATICPATH}/joined_tls.add.xml"/>
    </input>

    <output>
        <fcd-output value="${SIMULATIONPATH}/fcd.xml"/>
        <queue-output value="${SIMULATIONPATH}/queue.xml"/>
        <summary-output value="${SIMULATIONPATH}/summary.xml"/>
        <tripinfo-output value="${SIMULATIONPATH}/tripinfos.xml"/>
        <vehroute-output value="${SIMULATIONPATH}/vehroute.xml"/>
        <save-state.prefix value="configs\state"/>
    </output>

    <processing>
        <ignore-junction-blocker value="1"/>
        <ignore-route-errors value="true"/>
        <time-to-teleport value="-1"/>
    </processing>

    <report>
        <log value="C:/Users/fabio/Desktop/sumo_log.txt"/>
        <no-step-log value="true"/>
    </report>

    <emissions>
        <phemlight-path value="configs\./PHEMlight/"/>
    </emissions>

    <traci_server>
        <remote-port value="60136"/>
    </traci_server>

</sumoConfiguration>
-->

<tripinfos xmlns:xsi="http://www.w3.org/2001/XMLSchema-instance" xsi:noNamespaceSchemaLocation="http://sumo.dlr.de/xsd/tripinfo_file.xsd">
    <tripinfo id="2" depart="44.00" departLane="a210_0" departPos="5.10" departSpeed="0.00" departDelay="0.37" arrival="326.00" arrivalLane="b11[0]_0" arrivalPos="90.93" arrivalSpeed="12.81" duration="282.00" routeLength="2879.67" waitingTime="34.00" waitingCount="3" stopTime="0.00" timeLoss="72.75" rerouteNo="0" devices="vehroute_2 tripinfo_2 fcd_2" vType="DEFAULT_VEHTYPE" speedFactor="1.01" vaporized=""/>
    <tripinfo id="0" depart="40.00" departLane="a16_0" departPos="5.10" departSpeed="0.00" departDelay="0.29" arrival="348.00" arrivalLane="b3[1]b_0" arrivalPos="239.77" arrivalSpeed="13.59" duration="308.00" routeLength="3381.18" waitingTime="28.00" waitingCount="4" stopTime="0.00" timeLoss="74.56" rerouteNo="0" devices="vehroute_0 tripinfo_0 fcd_0" vType="DEFAULT_VEHTYPE" speedFactor="1.06" vaporized=""/>
    <tripinfo id="3" depart="70.00" departLane="a16_0" departPos="5.10" departSpeed="0.00" departDelay="0.91" arrival="480.00" arrivalLane="b3[1]b_0" arrivalPos="239.77" arrivalSpeed="14.08" duration="410.00" routeLength="3381.18" waitingTime="116.00" waitingCount="3" stopTime="0.00" timeLoss="180.65" rerouteNo="0" devices="vehroute_3 tripinfo_3 fcd_3" vType="DEFAULT_VEHTYPE" speedFactor="1.08" vaporized=""/>
    <tripinfo id="4" depart="76.00" departLane="a16_0" departPos="5.10" departSpeed="0.00" departDelay="0.60" arrival="481.00" arrivalLane="b3[1]b_0" arrivalPos="239.77" arrivalSpeed="13.06" duration="405.00" routeLength="3375.93" waitingTime="99.00" waitingCount="6" stopTime="0.00" timeLoss="164.13" rerouteNo="0" devices="vehroute_4 tripinfo_4 fcd_4" vType="DEFAULT_VEHTYPE" speedFactor="1.03" vaporized=""/>
    <tripinfo id="6" depart="151.00" departLane="a72[1]_0" departPos="5.10" departSpeed="0.00" departDelay="0.98" arrival="485.00" arrivalLane="b2[1][1][1]b_0" arrivalPos="325.74" arrivalSpeed="14.49" duration="334.00" routeLength="3091.94" waitingTime="88.00" waitingCount="3" stopTime="0.00" timeLoss="118.99" rerouteNo="0" devices="vehroute_6 tripinfo_6 fcd_6" vType="DEFAULT_VEHTYPE" speedFactor="1.05" vaporized=""/>
    <tripinfo id="1" depart="44.00" departLane="a16_0" departPos="5.10" departSpeed="0.00" departDelay="0.41" arrival="487.00" arrivalLane="b3[1]b_0" arrivalPos="239.77" arrivalSpeed="12.01" duration="443.00" routeLength="3381.18" waitingTime="114.00" waitingCount="5" stopTime="0.00" timeLoss="177.99" rerouteNo="0" devices="vehroute_1 tripinfo_1 fcd_1" vType="DEFAULT_VEHTYPE" speedFactor="0.94" vaporized=""/>
    <tripinfo id="5" depart="139.00" departLane="a16_0" departPos="5.10" departSpeed="0.00" departDelay="0.67" arrival="507.00" arrivalLane="b3[1]b_0" arrivalPos="239.77" arrivalSpeed="11.23" duration="368.00" routeLength="3381.18" waitingTime="17.00" waitingCount="2" stopTime="0.00" timeLoss="68.33" rerouteNo="0" devices="vehroute_5 tripinfo_5 fcd_5" vType="DEFAULT_VEHTYPE" speedFactor="0.83" vaporized=""/>
    <tripinfo id="10" depart="257.00" departLane="a210_0" departPos="5.10" departSpeed="0.00" departDelay="0.48" arrival="525.00" arrivalLane="b4[1][1][1]_0" arrivalPos="171.54" arrivalSpeed="14.68" duration="268.00" routeLength="2764.18" waitingTime="46.00" waitingCount="3" stopTime="0.00" timeLoss="84.41" rerouteNo="0" devices="vehroute_10 tripinfo_10 fcd_10" vType="DEFAULT_VEHTYPE" speedFactor="1.09" vaporized=""/>
    <tripinfo id="13" depart="306.00" departLane="a210_0" departPos="5.10" departSpeed="0.00" departDelay="0.75" arrival="527.00" arrivalLane="b4[1][1][1]_0" arrivalPos="171.54" arrivalSpeed="15.30" duration="221.00" routeLength="2767.14" waitingTime="18.00" waitingCount="2" stopTime="0.00" timeLoss="42.31" rerouteNo="0" devices="vehroute_13 tripinfo_13 fcd_13" vType="DEFAULT_VEHTYPE" speedFactor="1.12" vaporized=""/>
    <tripinfo id="12" depart="296.00" departLane="a210_0" departPos="5.10" departSpeed="0.00" departDelay="0.18" arrival="588.00" arrivalLane="b4[1][1][1]_0" arrivalPos="171.54" arrivalSpeed="13.71" duration="292.00" routeLength="2767.14" waitingTime="64.00" waitingCount="4" stopTime="0.00" timeLoss="101.12" rerouteNo="0" devices="vehroute_12 tripinfo_12 fcd_12" vType="DEFAULT_VEHTYPE" speedFactor="1.05" vaporized=""/>
    <tripinfo id="7" depart="209.00" departLane="a210_0" departPos="5.10" departSpeed="0.00" departDelay="0.99" arrival="593.00" arrivalLane="b4[1][1][1]_0" arrivalPos="171.54" arrivalSpeed="11.16" duration="384.00" routeLength="2767.14" waitingTime="120.00" waitingCount="3" stopTime="0.00" timeLoss="157.57" rerouteNo="0" devices="vehroute_7 tripinfo_7 fcd_7" vType="DEFAULT_VEHTYPE" speedFactor="0.89" vaporized=""/>
    <tripinfo id="8" depart="225.00" departLane="a16_0" departPos="5.10" departSpeed="0.00" departDelay="0.75" arrival="610.00" arrivalLane="b3[1]b_0" arrivalPos="239.77" arrivalSpeed="12.99" duration="385.00" routeLength="3381.18" waitingTime="62.00" waitingCount="5" stopTime="0.00" timeLoss="121.04" rerouteNo="0" devices="vehroute_8 tripinfo_8 fcd_8" vType="DEFAULT_VEHTYPE" speedFactor="0.94" vaporized=""/>
    <tripinfo id="11" depart="260.00" departLane="a16_0" departPos="5.10" departSpeed="0.00" departDelay="0.50" arrival="611.00" arrivalLane="b3[1]b_1" arrivalPos="239.77" arrivalSpeed="14.02" duration="351.00" routeLength="3381.18" waitingTime="47.00" waitingCount="3" stopTime="0.00" timeLoss="107.65" rerouteNo="0" devices="vehroute_11 tripinfo_11 fcd_11" vType="DEFAULT_VEHTYPE" speedFactor="1.03" vaporized=""/>
    <tripinfo id="9" depart="240.00" departLane="a16_0" departPos="5.10" departSpeed="0.00" departDelay="0.05" arrival="627.00" arrivalLane="b3[1]b_0" arrivalPos="239.77" arrivalSpeed="11.56" duration="387.00" routeLength="3381.18" waitingTime="47.00" waitingCount="3" stopTime="0.00" timeLoss="96.65" rerouteNo="0" devices="vehroute_9 tripinfo_9 fcd_9" vType="DEFAULT_VEHTYPE" speedFactor="0.86" vaporized=""/>
    <tripinfo id="17" depart="396.00" departLane="a210_0" departPos="5.10" departSpeed="0.00" departDelay="0.95" arrival="735.00" arrivalLane="b4[1][1][1]_0" arrivalPos="171.54" arrivalSpeed="12.04" duration="339.00" routeLength="2764.18" waitingTime="88.00" waitingCount="5" stopTime="0.00" timeLoss="126.83" rerouteNo="0" devices="vehroute_17 tripinfo_17 fcd_17" vType="DEFAULT_VEHTYPE" speedFactor="0.94" vaporized=""/>
    <tripinfo id="15" depart="355.00" departLane="a210_0" departPos="5.10" departSpeed="0.00" departDelay="0.78" arrival="738.00" arrivalLane="b4[1][1][1]_0" arrivalPos="171.54" arrivalSpeed="12.48" duration="383.00" routeLength="2767.14" waitingTime="123.00" waitingCount="5" stopTime="0.00" timeLoss="166.88" rerouteNo="0" devices="vehroute_15 tripinfo_15 fcd_15" vType="DEFAULT_VEHTYPE" speedFactor="0.93" vaporized=""/>
    <tripinfo id="14" depart="354.00" departLane="a16_0" departPos="5.10" departSpeed="0.00" departDelay="0.90" arrival="755.00" arrivalLane="b3[1]b_0" arrivalPos="239.77" arrivalSpeed="13.02" duration="401.00" routeLength="3381.18" waitingTime="87.00" waitingCount="8" stopTime="0.00" timeLoss="151.06" rerouteNo="0" devices="vehroute_14 tripinfo_14 fcd_14" vType="DEFAULT_VEHTYPE" speedFactor="0.99" vaporized=""/>
    <tripinfo id="16" depart="364.00" departLane="a16_0" departPos="5.10" departSpeed="0.00" departDelay="0.24" arrival="759.00" arrivalLane="b3[1]b_0" arrivalPos="239.77" arrivalSpeed="11.64" duration="395.00" routeLength="3375.93" waitingTime="50.00" waitingCount="6" stopTime="0.00" timeLoss="112.26" rerouteNo="0" devices="vehroute_16 tripinfo_16 fcd_16" vType="DEFAULT_VEHTYPE" speedFactor="0.88" vaporized=""/>
    <tripinfo id="18" depart="437.00" departLane="a210_0" departPos="5.10" departSpeed="0.00" departDelay="0.01" arrival="806.00" arrivalLane="b11[0]_0" arrivalPos="90.93" arrivalSpeed="12.97" duration="369.00" routeLength="2879.67" waitingTime="99.00" waitingCount="5" stopTime="0.00" timeLoss="143.91" rerouteNo="0" devices="vehroute_18 tripinfo_18 fcd_18" vType="DEFAULT_VEHTYPE" speedFactor="0.94" vaporized=""/>
    <tripinfo id="20" depart="494.00" departLane="a210_0" departPos="5.10" departSpeed="0.00" departDelay="0.41" arrival="875.00" arrivalLane="b4[1][1][1]_0" arrivalPos="171.54" arrivalSpeed="14.11" duration="381.00" routeLength="2764.18" waitingTime="134.00" waitingCount="6" stopTime="0.00" timeLoss="184.44" rerouteNo="0" devices="vehroute_20 tripinfo_20 fcd_20" vType="DEFAULT_VEHTYPE" speedFactor="1.02" vaporized=""/>
    <tripinfo id="19" depart="471.00" departLane="a16_0" departPos="5.10" departSpeed="0.00" departDelay="0.44" arrival="876.00" arrivalLane="b3[1]b_0" arrivalPos="239.77" arrivalSpeed="16.07" duration="405.00" routeLength="3381.18" waitingTime="113.00" waitingCount="8" stopTime="0.00" timeLoss="190.67" rerouteNo="0" devices="vehroute_19 tripinfo_19 fcd_19" vType="DEFAULT_VEHTYPE" speedFactor="1.16" vaporized=""/>
    <tripinfo id="23" depart="541.00" departLane="a210_0" departPos="5.10" departSpeed="0.00" departDelay="0.39" arrival="922.00" arrivalLane="b11[0]_0" arrivalPos="90.93" arrivalSpeed="11.25" duration="381.00" routeLength="2879.67" waitingTime="104.00" waitingCount="4" stopTime="0.00" timeLoss="143.10" rerouteNo="0" devices="vehroute_23 tripinfo_23 fcd_23" vType="DEFAULT_VEHTYPE" speedFactor="0.89" vaporized=""/>
    <tripinfo id="24" depart="627.00" departLane="a210_0" departPos="5.10" departSpeed="0.00" departDelay="0.21" arrival="925.00" arrivalLane="b11[0]_0" arrivalPos="90.93" arrivalSpeed="11.46" duration="298.00" routeLength="2879.67" waitingTime="6.00" waitingCount="1" stopTime="0.00" timeLoss="42.00" rerouteNo="0" devices="vehroute_24 tripinfo_24 fcd_24" vType="DEFAULT_VEHTYPE" speedFactor="0.83" vaporized=""/>
    <tripinfo id="21" depart="513.00" departLane="a72[1]_0" departPos="5.10" departSpeed="0.00" departDelay="0.90" arrival="980.00" arrivalLane="b2[1][1][1]b_0" arrivalPos="325.74" arrivalSpeed="13.83" duration="467.00" routeLength="3087.45" waitingTime="205.00" waitingCount="4" stopTime="0.00" timeLoss="244.30" rerouteNo="0" devices="vehroute_21 tripinfo_21 fcd_21" vType="DEFAULT_VEHTYPE" speedFactor="1.01" vaporized=""/>
    <tripinfo id="22" depart="541.00" departLane="a72[1]_0" departPos="5.10" departSpeed="0.00" departDelay="0.82" arrival="983.00" arrivalLane="b2[1][1][1]b_0" arrivalPos="325.74" arrivalSpeed="13.27" duration="442.00" routeLength="3088.98" waitingTime="170.00" waitingCount="5" stopTime="0.00" timeLoss="211.04" rerouteNo="0" devices="vehroute_22 tripinfo_22 fcd_22" vType="DEFAULT_VEHTYPE" speedFactor="0.97" vaporized=""/>
    <tripinfo id="25" depart="667.00" departLane="a16_0" departPos="5.10" departSpeed="0.00" departDelay="0.30" arrival="1094.00" arrivalLane="b3[1]b_0" arrivalPos="239.77" arrivalSpeed="11.53" duration="427.00" routeLength="3381.18" waitingTime="84.00" waitingCount="5" stopTime="0.00" timeLoss="142.25" rerouteNo="0" devices="vehroute_25 tripinfo_25 fcd_25" vType="DEFAULT_VEHTYPE" speedFactor="0.87" vaporized=""/>
    <tripinfo id="30" depart="917.00" departLane="a210_0" departPos="5.10" departSpeed="0.00" departDelay="0.19" arrival="1127.00" arrivalLane="b4[1][1][1]_0" arrivalPos="171.54" arrivalSpeed="15.85" duration="210.00" routeLength="2767.14" waitingTime="15.00" waitingCount="2" stopTime="0.00" timeLoss="39.37" rerouteNo="0" devices="vehroute_30 tripinfo_30 fcd_30" vType="DEFAULT_VEHTYPE" speedFactor="1.18" vaporized=""/>
    <tripinfo id="26" depart="701.00" departLane="a16_0" departPos="5.10" departSpeed="0.00" departDelay="0.36" arrival="1151.00" arrivalLane="b3[1]b_0" arrivalPos="239.77" arrivalSpeed="12.58" duration="450.00" routeLength="3381.18" waitingTime="104.00" waitingCount="7" stopTime="0.00" timeLoss="178.50" rerouteNo="0" devices="vehroute_26 tripinfo_26 fcd_26" vType="DEFAULT_VEHTYPE" speedFactor="0.92" vaporized=""/>
    <tripinfo id="28" depart="862.00" departLane="a72[1]_0" departPos="5.10" departSpeed="0.00" departDelay="0.95" arrival="1232.00" arrivalLane="b2[1][1][1]b_0" arrivalPos="325.74" arrivalSpeed="14.46" duration="370.00" routeLength="3088.98" waitingTime="122.00" waitingCount="5" stopTime="0.00" timeLoss="171.96" rerouteNo="0" devices="vehroute_28 tripinfo_28 fcd_28" vType="DEFAULT_VEHTYPE" speedFactor="1.13" vaporized=""/>
    <tripinfo id="27" depart="775.00" departLane="a16_0" departPos="5.10" departSpeed="0.00" departDelay="0.27" arrival="1236.00" arrivalLane="b3[1]b_0" arrivalPos="239.77" arrivalSpeed="13.02" duration="461.00" routeLength="3381.18" waitingTime="136.00" waitingCount="6" stopTime="0.00" timeLoss="198.74" rerouteNo="0" devices="vehroute_27 tripinfo_27 fcd_27" vType="DEFAULT_VEHTYPE" speedFactor="0.95" vaporized=""/>
    <tripinfo id="31" depart="936.00" departLane="a210_0" departPos="5.10" departSpeed="0.00" departDelay="0.67" arrival="1284.00" arrivalLane="b11[0]_0" arrivalPos="90.93" arrivalSpeed="15.08" duration="348.00" routeLength="2879.67" waitingTime="110.00" waitingCount="4" stopTime="0.00" timeLoss="164.74" rerouteNo="0" devices="vehroute_31 tripinfo_31 fcd_31" vType="DEFAULT_VEHTYPE" speedFactor="1.15" vaporized=""/>
    <tripinfo id="32" depart="955.00" departLane="a16_0" departPos="5.10" departSpeed="0.00" departDelay="0.83" arrival="1360.00" arrivalLane="b3[1]b_0" arrivalPos="239.77" arrivalSpeed="13.85" duration="405.00" routeLength="3381.18" waitingTime="99.00" waitingCount="4" stopTime="0.00" timeLoss="157.48" rerouteNo="0" devices="vehroute_32 tripinfo_32 fcd_32" vType="DEFAULT_VEHTYPE" speedFactor="1.01" vaporized=""/>
    <tripinfo id="29" depart="869.00" departLane="a16_0" departPos="5.10" departSpeed="0.00" departDelay="0.67" arrival="1362.00" arrivalLane="b3[1]b_0" arrivalPos="239.77" arrivalSpeed="12.02" duration="493.00" routeLength="3375.93" waitingTime="168.00" waitingCount="5" stopTime="0.00" timeLoss="225.85" rerouteNo="0" devices="vehroute_29 tripinfo_29 fcd_29" vType="DEFAULT_VEHTYPE" speedFactor="0.93" vaporized=""/>
    <tripinfo id="34" depart="1092.00" departLane="a72[1]_0" departPos="5.10" departSpeed="0.00" departDelay="0.21" arrival="1365.00" arrivalLane="b2[1][1][1]b_0" arrivalPos="325.74" arrivalSpeed="13.50" duration="273.00" routeLength="3087.45" waitingTime="16.00" waitingCount="2" stopTime="0.00" timeLoss="47.44" rerouteNo="0" devices="vehroute_34 tripinfo_34 fcd_34" vType="DEFAULT_VEHTYPE" speedFactor="0.99" vaporized=""/>
    <tripinfo id="35" depart="1103.00" departLane="a210_0" departPos="5.10" departSpeed="0.00" departDelay="0.49" arrival="1415.00" arrivalLane="b11[0]_0" arrivalPos="90.93" arrivalSpeed="13.29" duration="312.00" routeLength="2879.67" waitingTime="61.00" waitingCount="5" stopTime="0.00" timeLoss="104.96" rerouteNo="0" devices="vehroute_35 tripinfo_35 fcd_35" vType="DEFAULT_VEHTYPE" speedFactor="1.02" vaporized=""/>
    <tripinfo id="33" depart="1068.00" departLane="a16_0" departPos="5.10" departSpeed="0.00" departDelay="0.47" arrival="1481.00" arrivalLane="b3[1]b_0" arrivalPos="239.77" arrivalSpeed="16.16" duration="413.00" routeLength="3381.18" waitingTime="132.00" waitingCount="6" stopTime="0.00" timeLoss="200.68" rerouteNo="0" devices="vehroute_33 tripinfo_33 fcd_33" vType="DEFAULT_VEHTYPE" speedFactor="1.17" vaporized=""/>
    <tripinfo id="36" depart="1136.00" departLane="a210_0" departPos="5.10" departSpeed="0.00" departDelay="0.54" arrival="1487.00" arrivalLane="b4[1][1][1]_0" arrivalPos="171.54" arrivalSpeed="12.99" duration="351.00" routeLength="2767.14" waitingTime="116.00" waitingCount="3" stopTime="0.00" timeLoss="144.96" rerouteNo="0" devices="vehroute_36 tripinfo_36 fcd_36" vType="DEFAULT_VEHTYPE" speedFactor="0.97" vaporized=""/>
    <tripinfo id="37" depart="1169.00" departLane="a210_0" departPos="5.10" departSpeed="0.00" departDelay="0.17" arrival="1526.00" arrivalLane="b11[0]_0" arrivalPos="90.93" arrivalSpeed="15.86" duration="357.00" routeLength="2879.67" waitingTime="131.00" waitingCount="6" stopTime="0.00" timeLoss="177.46" rerouteNo="0" devices="vehroute_37 tripinfo_37 fcd_37" vType="DEFAULT_VEHTYPE" speedFactor="1.18" vaporized=""/>
    <tripinfo id="38" depart="1259.00" departLane="a16_0" departPos="5.10" departSpeed="0.00" departDelay="0.07" arrival="1609.00" arrivalLane="b3[1]b_0" arrivalPos="239.77" arrivalSpeed="14.92" duration="350.00" routeLength="3381.18" waitingTime="66.00" waitingCount="4" stopTime="0.00" timeLoss="125.19" rerouteNo="0" devices="vehroute_38 tripinfo_38 fcd_38" vType="DEFAULT_VEHTYPE" speedFactor="1.10" vaporized=""/>
    <tripinfo id="39" depart="1272.00" departLane="a210_0" departPos="5.10" departSpeed="0.00" departDelay="0.29" arrival="1660.00" arrivalLane="b11[0]_0" arrivalPos="90.93" arrivalSpeed="12.43" duration="388.00" routeLength="2879.67" waitingTime="104.00" waitingCount="5" stopTime="0.00" timeLoss="152.96" rerouteNo="0" devices="vehroute_39 tripinfo_39 fcd_39" vType="DEFAULT_VEHTYPE" speedFactor="0.90" vaporized=""/>
    <tripinfo id="42" depart="1421.00" departLane="a72[1]_0" departPos="5.10" departSpeed="0.00" departDelay="0.89" arrival="1713.00" arrivalLane="b2[1][1][1]b_0" arrivalPos="325.74" arrivalSpeed="14.06" duration="292.00" routeLength="3087.45" waitingTime="53.00" waitingCount="3" stopTime="0.00" timeLoss="86.33" rerouteNo="0" devices="vehroute_42 tripinfo_42 fcd_42" vType="DEFAULT_VEHTYPE" speedFactor="1.09" vaporized=""/>
    <tripinfo id="41" depart="1354.00" departLane="a72[1]_0" departPos="5.10" departSpeed="0.00" departDelay="0.80" arrival="1721.00" arrivalLane="b2[1][1][1]b_0" arrivalPos="325.74" arrivalSpeed="12.00" duration="367.00" routeLength="3091.94" waitingTime="103.00" waitingCount="2" stopTime="0.00" timeLoss="131.76" rerouteNo="0" devices="vehroute_41 tripinfo_41 fcd_41" vType="DEFAULT_VEHTYPE" speedFactor="0.96" vaporized=""/>
    <tripinfo id="40" depart="1324.00" departLane="a16_0" departPos="5.10" departSpeed="0.00" departDelay="0.07" arrival="1737.00" arrivalLane="b3[1]b_0" arrivalPos="239.77" arrivalSpeed="13.50" duration="413.00" routeLength="3381.18" waitingTime="114.00" waitingCount="6" stopTime="0.00" timeLoss="172.07" rerouteNo="0" devices="vehroute_40 tripinfo_40 fcd_40" vType="DEFAULT_VEHTYPE" speedFactor="1.03" vaporized=""/>
    <tripinfo id="44" depart="1499.00" departLane="a210_0" departPos="5.10" departSpeed="0.00" departDelay="0.85" arrival="1784.00" arrivalLane="b11[0]_0" arrivalPos="90.93" arrivalSpeed="13.65" duration="285.00" routeLength="2879.67" waitingTime="31.00" waitingCount="4" stopTime="0.00" timeLoss="82.00" rerouteNo="0" devices="vehroute_44 tripinfo_44 fcd_44" vType="DEFAULT_VEHTYPE" speedFactor="1.04" vaporized=""/>
    <tripinfo id="43" depart="1491.00" departLane="a16_0" departPos="5.10" departSpeed="0.00" departDelay="0.13" arrival="1862.00" arrivalLane="b3[1]b_0" arrivalPos="239.77" arrivalSpeed="13.68" duration="371.00" routeLength="3381.18" waitingTime="80.00" waitingCount="5" stopTime="0.00" timeLoss="131.42" rerouteNo="0" devices="vehroute_43 tripinfo_43 fcd_43" vType="DEFAULT_VEHTYPE" speedFactor="1.04" vaporized=""/>
    <tripinfo id="45" depart="1534.00" departLane="a16_0" departPos="5.10" departSpeed="0.00" departDelay="0.10" arrival="1924.00" arrivalLane="b3[1]b_0" arrivalPos="239.77" arrivalSpeed="14.43" duration="390.00" routeLength="3381.18" waitingTime="104.00" waitingCount="5" stopTime="0.00" timeLoss="161.11" rerouteNo="0" devices="vehroute_45 tripinfo_45 fcd_45" vType="DEFAULT_VEHTYPE" speedFactor="1.09" vaporized=""/>
    <tripinfo id="49" depart="1655.00" departLane="a210_0" departPos="5.10" departSpeed="0.00" departDelay="0.99" arrival="1972.00" arrivalLane="b4[1][1][1]_0" arrivalPos="171.54" arrivalSpeed="11.55" duration="317.00" routeLength="2767.14" waitingTime="54.00" waitingCount="1" stopTime="0.00" timeLoss="81.66" rerouteNo="0" devices="vehroute_49 tripinfo_49 fcd_49" vType="DEFAULT_VEHTYPE" speedFactor="0.85" vaporized=""/>
    <tripinfo id="46" depart="1576.00" departLane="a16_0" departPos="5.10" departSpeed="0.00" departDelay="0.63" arrival="1990.00" arrivalLane="b3[1]b_0" arrivalPos="239.77" arrivalSpeed="13.51" duration="414.00" routeLength="3381.18" waitingTime="100.00" waitingCount="5" stopTime="0.00" timeLoss="164.26" rerouteNo="0" devices="vehroute_46 tripinfo_46 fcd_46" vType="DEFAULT_VEHTYPE" speedFactor="1.00" vaporized=""/>
    <tripinfo id="47" depart="1620.00" departLane="a210_0" departPos="5.10" departSpeed="0.00" departDelay="0.78" arrival="2034.00" arrivalLane="b11[0]_0" arrivalPos="90.93" arrivalSpeed="12.15" duration="414.00" routeLength="2879.67" waitingTime="129.00" waitingCount="5" stopTime="0.00" timeLoss="179.48" rerouteNo="0" devices="vehroute_47 tripinfo_47 fcd_47" vType="DEFAULT_VEHTYPE" speedFactor="0.90" vaporized=""/>
    <tripinfo id="51" depart="1714.00" departLane="a210_0" departPos="5.10" departSpeed="0.00" departDelay="0.33" arrival="2036.00" arrivalLane="b11[0]_0" arrivalPos="90.93" arrivalSpeed="15.79" duration="322.00" routeLength="2879.67" waitingTime="67.00" waitingCount="5" stopTime="0.00" timeLoss="140.46" rerouteNo="0" devices="vehroute_51 tripinfo_51 fcd_51" vType="DEFAULT_VEHTYPE" speedFactor="1.17" vaporized=""/>
    <tripinfo id="54" depart="1758.00" departLane="a72[1]_0" departPos="5.10" departSpeed="0.00" departDelay="0.33" arrival="2098.00" arrivalLane="b2[1][1][1]b_0" arrivalPos="325.74" arrivalSpeed="12.69" duration="340.00" routeLength="3088.98" waitingTime="73.00" waitingCount="4" stopTime="0.00" timeLoss="115.51" rerouteNo="0" devices="vehroute_54 tripinfo_54 fcd_54" vType="DEFAULT_VEHTYPE" speedFactor="1.00" vaporized=""/>
    <tripinfo id="52" depart="1733.00" departLane="a210_0" departPos="5.10" departSpeed="0.00" departDelay="0.16" arrival="2102.00" arrivalLane="b4[1][1][1]_0" arrivalPos="171.54" arrivalSpeed="13.29" duration="369.00" routeLength="2767.14" waitingTime="137.00" waitingCount="4" stopTime="0.00" timeLoss="172.17" rerouteNo="0" devices="vehroute_52 tripinfo_52 fcd_52" vType="DEFAULT_VEHTYPE" speedFactor="1.02" vaporized=""/>
    <tripinfo id="55" depart="1834.00" departLane="a210_0" departPos="5.10" departSpeed="0.00" departDelay="0.08" arrival="2104.00" arrivalLane="b4[1][1][1]_0" arrivalPos="171.54" arrivalSpeed="12.74" duration="270.00" routeLength="2767.14" waitingTime="33.00" waitingCount="2" stopTime="0.00" timeLoss="69.17" rerouteNo="0" devices="vehroute_55 tripinfo_55 fcd_55" vType="DEFAULT_VEHTYPE" speedFactor="1.00" vaporized=""/>
    <tripinfo id="48" depart="1636.00" departLane="a16_0" departPos="5.10" departSpeed="0.00" departDelay="0.24" arrival="2123.00" arrivalLane="b3[1]b_0" arrivalPos="239.77" arrivalSpeed="11.15" duration="487.00" routeLength="3381.18" waitingTime="144.00" waitingCount="7" stopTime="0.00" timeLoss="203.52" rerouteNo="0" devices="vehroute_48 tripinfo_48 fcd_48" vType="DEFAULT_VEHTYPE" speedFactor="0.88" vaporized=""/>
    <tripinfo id="50" depart="1662.00" departLane="a16_0" departPos="5.10" departSpeed="0.00" departDelay="0.68" arrival="2123.00" arrivalLane="b3[1]b_1" arrivalPos="239.77" arrivalSpeed="11.53" duration="461.00" routeLength="3375.93" waitingTime="105.00" waitingCount="6" stopTime="0.00" timeLoss="170.14" rerouteNo="0" devices="vehroute_50 tripinfo_50 fcd_50" vType="DEFAULT_VEHTYPE" speedFactor="0.85" vaporized=""/>
    <tripinfo id="53" depart="1757.00" departLane="a16_0" departPos="5.10" departSpeed="0.00" departDelay="0.73" arrival="2169.00" arrivalLane="b3[1]b_0" arrivalPos="239.77" arrivalSpeed="14.28" duration="412.00" routeLength="3381.18" waitingTime="123.00" waitingCount="6" stopTime="0.00" timeLoss="185.24" rerouteNo="0" devices="vehroute_53 tripinfo_53 fcd_53" vType="DEFAULT_VEHTYPE" speedFactor="1.10" vaporized=""/>
    <tripinfo id="58" depart="1898.00" departLane="a16_0" departPos="5.10" departSpeed="0.00" departDelay="0.65" arrival="2311.00" arrivalLane="b3[1]b_0" arrivalPos="239.77" arrivalSpeed="13.78" duration="413.00" routeLength="3381.18" waitingTime="104.00" waitingCount="5" stopTime="0.00" timeLoss="169.12" rerouteNo="0" devices="vehroute_58 tripinfo_58 fcd_58" vType="DEFAULT_VEHTYPE" speedFactor="1.02" vaporized=""/>
    <tripinfo id="56" depart="1844.00" departLane="a16_0" departPos="5.10" departSpeed="0.00" departDelay="0.00" arrival="2317.00" arrivalLane="b3[1]b_0" arrivalPos="239.77" arrivalSpeed="12.18" duration="473.00" routeLength="3375.93" waitingTime="139.00" waitingCount="5" stopTime="0.00" timeLoss="196.40" rerouteNo="0" devices="vehroute_56 tripinfo_56 fcd_56" vType="DEFAULT_VEHTYPE" speedFactor="0.90" vaporized=""/>
    <tripinfo id="57" depart="1867.00" departLane="a72[1]_0" departPos="5.10" departSpeed="0.00" departDelay="0.73" arrival="2325.00" arrivalLane="b2[1][1][1]b_0" arrivalPos="325.74" arrivalSpeed="15.53" duration="458.00" routeLength="3091.94" waitingTime="217.00" waitingCount="5" stopTime="0.00" timeLoss="261.31" rerouteNo="0" devices="vehroute_57 tripinfo_57 fcd_57" vType="DEFAULT_VEHTYPE" speedFactor="1.14" vaporized=""/>
    <tripinfo id="60" depart="1973.00" departLane="a72[1]_0" departPos="5.10" departSpeed="0.00" departDelay="0.35" arrival="2328.00" arrivalLane="b2[1][1][1]b_0" arrivalPos="325.74" arrivalSpeed="14.05" duration="355.00" routeLength="3087.45" waitingTime="104.00" waitingCount="3" stopTime="0.00" timeLoss="147.77" rerouteNo="0" devices="vehroute_60 tripinfo_60 fcd_60" vType="DEFAULT_VEHTYPE" speedFactor="1.08" vaporized=""/>
    <tripinfo id="59" depart="1928.00" departLane="a72[1]_0" departPos="5.10" departSpeed="0.00" departDelay="0.88" arrival="2338.00" arrivalLane="b2[1][1][1]b_0" arrivalPos="325.74" arrivalSpeed="12.48" duration="410.00" routeLength="3084.49" waitingTime="146.00" waitingCount="3" stopTime="0.00" timeLoss="178.05" rerouteNo="0" devices="vehroute_59 tripinfo_59 fcd_59" vType="DEFAULT_VEHTYPE" speedFactor="0.97" vaporized=""/>
    <tripinfo id="64" depart="2293.00" departLane="a210_0" departPos="5.10" departSpeed="0.00" departDelay="0.99" arrival="2541.00" arrivalLane="b4[1][1][1]_0" arrivalPos="171.54" arrivalSpeed="11.81" duration="248.00" routeLength="2764.18" waitingTime="8.00" waitingCount="2" stopTime="0.00" timeLoss="34.12" rerouteNo="0" devices="vehroute_64 tripinfo_64 fcd_64" vType="DEFAULT_VEHTYPE" speedFactor="0.94" vaporized=""/>
    <tripinfo id="61" depart="2211.00" departLane="a16_0" departPos="5.10" departSpeed="0.00" departDelay="0.84" arrival="2547.00" arrivalLane="b3[1]b_0" arrivalPos="239.77" arrivalSpeed="15.05" duration="336.00" routeLength="3381.18" waitingTime="56.00" waitingCount="5" stopTime="0.00" timeLoss="113.62" rerouteNo="0" devices="vehroute_61 tripinfo_61 fcd_61" vType="DEFAULT_VEHTYPE" speedFactor="1.12" vaporized=""/>
    <tripinfo id="62" depart="2215.00" departLane="a72[1]_0" departPos="5.10" departSpeed="0.00" departDelay="0.21" arrival="2579.00" arrivalLane="b2[1][1][1]b_0" arrivalPos="325.74" arrivalSpeed="13.90" duration="364.00" routeLength="3091.94" waitingTime="105.00" waitingCount="4" stopTime="0.00" timeLoss="142.48" rerouteNo="0" devices="vehroute_62 tripinfo_62 fcd_62" vType="DEFAULT_VEHTYPE" speedFactor="1.02" vaporized=""/>
    <tripinfo id="65" depart="2294.00" departLane="a72[1]_0" departPos="5.10" departSpeed="0.00" departDelay="0.07" arrival="2601.00" arrivalLane="b2[1][1][1]b_0" arrivalPos="325.74" arrivalSpeed="11.50" duration="307.00" routeLength="3091.94" waitingTime="19.00" waitingCount="2" stopTime="0.00" timeLoss="51.72" rerouteNo="0" devices="vehroute_65 tripinfo_65 fcd_65" vType="DEFAULT_VEHTYPE" speedFactor="0.88" vaporized=""/>
    <tripinfo id="67" depart="2378.00" departLane="a210_0" departPos="5.10" departSpeed="0.00" departDelay="0.91" arrival="2698.00" arrivalLane="b4[1][1][1]_0" arrivalPos="171.54" arrivalSpeed="11.53" duration="320.00" routeLength="2767.14" waitingTime="67.00" waitingCount="3" stopTime="0.00" timeLoss="100.61" rerouteNo="0" devices="vehroute_67 tripinfo_67 fcd_67" vType="DEFAULT_VEHTYPE" speedFactor="0.91" vaporized=""/>
    <tripinfo id="69" depart="2449.00" departLane="a72[1]_0" departPos="5.10" departSpeed="0.00" departDelay="0.18" arrival="2705.00" arrivalLane="b2[1][1][1]b_0" arrivalPos="325.74" arrivalSpeed="13.81" duration="256.00" routeLength="3088.98" waitingTime="11.00" waitingCount="1" stopTime="0.00" timeLoss="36.00" rerouteNo="0" devices="vehroute_69 tripinfo_69 fcd_69" vType="DEFAULT_VEHTYPE" speedFactor="1.02" vaporized=""/>