<?xml version="1.0" encoding="UTF-8"?>

<!-- generated on 2025-03-21 17:51:22 by Eclipse SUMO sumo Version 1.21.0
<sumoConfiguration xmlns:xsi="http://www.w3.org/2001/XMLSchema-instance" xsi:noNamespaceSchemaLocation="http://sumo.dlr.de/xsd/sumoConfiguration.xsd">

    <input>
        <net-file value="${STATICPATH}/joined_lanes.net.xml"/>
        <route-files value="${SIMULATIONPATH}/generatedRoutes.rou.xml"/>
        <additional-files value="${STATICPATH}/detectors.add.xml,${STATICPATH}/joined_vtypes.add.xml,${STATICPATH}/joined_tls.add.xml"/>
    </input>

    <output>
        <fcd-output value="${SIMULATIONPATH}/fcd.xml"/>
        <queue-output value="${SIMULATIONPATH}/queue.xml"/>
        <summary-output value="${SIMULATIONPATH}/summary.xml"/>
        <tripinfo-output value="${SIMULATIONPATH}/tripinfos.xml"/>
        <vehroute-output value="${SIMULATIONPATH}/vehroute.xml"/>
        <save-state.prefix value="configs\state"/>
    </output>

    <processing>
        <ignore-junction-blocker value="1"/>
        <ignore-route-errors value="true"/>
        <time-to-teleport value="-1"/>
    </processing>

    <report>
        <log value="C:/Users/fabio/Desktop/sumo_log.txt"/>
        <no-step-log value="true"/>
    </report>

    <emissions>
        <phemlight-path value="configs\./PHEMlight/"/>
    </emissions>

    <traci_server>
        <remote-port value="60215"/>
    </traci_server>

</sumoConfiguration>
-->

<tripinfos xmlns:xsi="http://www.w3.org/2001/XMLSchema-instance" xsi:noNamespaceSchemaLocation="http://sumo.dlr.de/xsd/tripinfo_file.xsd">
    <tripinfo id="0" depart="131.00" departLane="a69_0" departPos="5.10" departSpeed="0.00" departDelay="0.82" arrival="485.00" arrivalLane="b2[1][1][1]b_0" arrivalPos="325.74" arrivalSpeed="13.54" duration="354.00" routeLength="3028.30" waitingTime="111.00" waitingCount="3" stopTime="0.00" timeLoss="145.59" rerouteNo="0" devices="vehroute_0 tripinfo_0 fcd_0" vType="DEFAULT_VEHTYPE" speedFactor="1.06" vaporized=""/>
    <tripinfo id="3" depart="250.00" departLane="a210_0" departPos="5.10" departSpeed="0.00" departDelay="0.07" arrival="508.00" arrivalLane="b10_0" arrivalPos="224.30" arrivalSpeed="14.91" duration="258.00" routeLength="2833.68" waitingTime="37.00" waitingCount="3" stopTime="0.00" timeLoss="68.95" rerouteNo="0" devices="vehroute_3 tripinfo_3 fcd_3" vType="DEFAULT_VEHTYPE" speedFactor="1.08" vaporized=""/>
    <tripinfo id="4" depart="286.00" departLane="a69_0" departPos="5.10" departSpeed="0.00" departDelay="0.09" arrival="618.00" arrivalLane="b2[1][1][1]b_0" arrivalPos="325.74" arrivalSpeed="14.11" duration="332.00" routeLength="3023.81" waitingTime="85.00" waitingCount="3" stopTime="0.00" timeLoss="118.71" rerouteNo="0" devices="vehroute_4 tripinfo_4 fcd_4" vType="DEFAULT_VEHTYPE" speedFactor="1.03" vaporized=""/>
    <tripinfo id="1" depart="217.00" departLane="a69_0" departPos="5.10" departSpeed="0.00" departDelay="0.49" arrival="621.00" arrivalLane="b2[1][1][1]b_1" arrivalPos="325.74" arrivalSpeed="13.01" duration="404.00" routeLength="3025.34" waitingTime="128.00" waitingCount="4" stopTime="0.00" timeLoss="169.13" rerouteNo="0" devices="vehroute_1 tripinfo_1 fcd_1" vType="DEFAULT_VEHTYPE" speedFactor="0.94" vaporized=""/>
    <tripinfo id="2" depart="244.00" departLane="a69_0" departPos="5.10" departSpeed="0.00" departDelay="0.59" arrival="621.00" arrivalLane="b2[1][1][1]b_0" arrivalPos="325.74" arrivalSpeed="13.76" duration="377.00" routeLength="3020.85" waitingTime="107.00" waitingCount="5" stopTime="0.00" timeLoss="158.80" rerouteNo="0" devices="vehroute_2 tripinfo_2 fcd_2" vType="DEFAULT_VEHTYPE" speedFactor="1.01" vaporized=""/>
    <tripinfo id="11" depart="419.00" departLane="a210_0" departPos="5.10" departSpeed="0.00" departDelay="0.08" arrival="677.00" arrivalLane="b10_0" arrivalPos="224.30" arrivalSpeed="13.74" duration="258.00" routeLength="2833.68" waitingTime="32.00" waitingCount="2" stopTime="0.00" timeLoss="58.72" rerouteNo="0" devices="vehroute_11 tripinfo_11 fcd_11" vType="DEFAULT_VEHTYPE" speedFactor="1.03" vaporized=""/>
    <tripinfo id="6" depart="309.00" departLane="a40_0" departPos="5.10" departSpeed="0.00" departDelay="0.63" arrival="689.00" arrivalLane="b4[1][1][0]_1" arrivalPos="170.25" arrivalSpeed="13.71" duration="380.00" routeLength="2567.39" waitingTime="110.00" waitingCount="5" stopTime="0.00" timeLoss="197.72" rerouteNo="0" devices="vehroute_6 tripinfo_6 fcd_6" vType="DEFAULT_VEHTYPE" speedFactor="1.05" vaporized=""/>
    <tripinfo id="5" depart="292.00" departLane="a40_0" departPos="5.10" departSpeed="0.00" departDelay="0.69" arrival="697.00" arrivalLane="b4[1][1][0]_0" arrivalPos="170.25" arrivalSpeed="10.80" duration="405.00" routeLength="2579.94" waitingTime="120.00" waitingCount="5" stopTime="0.00" timeLoss="174.03" rerouteNo="0" devices="vehroute_5 tripinfo_5 fcd_5" vType="DEFAULT_VEHTYPE" speedFactor="0.83" vaporized=""/>
    <tripinfo id="8" depart="321.00" departLane="a40_0" departPos="5.10" departSpeed="0.00" departDelay="0.15" arrival="698.00" arrivalLane="b4[1][1][0]_1" arrivalPos="170.25" arrivalSpeed="12.24" duration="377.00" routeLength="2567.39" waitingTime="86.00" waitingCount="3" stopTime="0.00" timeLoss="173.31" rerouteNo="0" devices="vehroute_8 tripinfo_8 fcd_8" vType="DEFAULT_VEHTYPE" speedFactor="0.94" vaporized=""/>
    <tripinfo id="7" depart="316.00" departLane="a40_0" departPos="5.10" departSpeed="0.00" departDelay="0.49" arrival="699.00" arrivalLane="b4[1][1][0]_0" arrivalPos="170.25" arrivalSpeed="12.11" duration="383.00" routeLength="2579.94" waitingTime="90.00" waitingCount="5" stopTime="0.00" timeLoss="168.54" rerouteNo="0" devices="vehroute_7 tripinfo_7 fcd_7" vType="DEFAULT_VEHTYPE" speedFactor="0.89" vaporized=""/>
    <tripinfo id="10" depart="375.00" departLane="a69_0" departPos="5.10" departSpeed="0.00" departDelay="0.21" arrival="743.00" arrivalLane="b2[1][1][1]b_0" arrivalPos="325.74" arrivalSpeed="14.90" duration="368.00" routeLength="3020.85" waitingTime="121.00" waitingCount="4" stopTime="0.00" timeLoss="166.10" rerouteNo="0" devices="vehroute_10 tripinfo_10 fcd_10" vType="DEFAULT_VEHTYPE" speedFactor="1.09" vaporized=""/>
    <tripinfo id="9" depart="349.00" departLane="a69_0" departPos="5.10" departSpeed="0.00" departDelay="0.96" arrival="747.00" arrivalLane="b2[1][1][1]b_0" arrivalPos="325.74" arrivalSpeed="10.61" duration="398.00" routeLength="3025.34" waitingTime="105.00" waitingCount="3" stopTime="0.00" timeLoss="140.82" rerouteNo="0" devices="vehroute_9 tripinfo_9 fcd_9" vType="DEFAULT_VEHTYPE" speedFactor="0.86" vaporized=""/>
    <tripinfo id="13" depart="463.00" departLane="a210_0" departPos="5.10" departSpeed="0.00" departDelay="0.78" arrival="819.00" arrivalLane="b10_0" arrivalPos="224.30" arrivalSpeed="15.18" duration="356.00" routeLength="2833.68" waitingTime="125.00" waitingCount="6" stopTime="0.00" timeLoss="173.41" rerouteNo="0" devices="vehroute_13 tripinfo_13 fcd_13" vType="DEFAULT_VEHTYPE" speedFactor="1.12" vaporized=""/>
    <tripinfo id="12" depart="460.00" departLane="a69_0" departPos="5.10" departSpeed="0.00" departDelay="0.23" arrival="868.00" arrivalLane="b2[1][1][1]b_0" arrivalPos="325.74" arrivalSpeed="13.44" duration="408.00" routeLength="3025.34" waitingTime="137.00" waitingCount="5" stopTime="0.00" timeLoss="197.69" rerouteNo="0" devices="vehroute_12 tripinfo_12 fcd_12" vType="DEFAULT_VEHTYPE" speedFactor="1.05" vaporized=""/>
    <tripinfo id="14" depart="478.00" departLane="a69_0" departPos="5.10" departSpeed="0.00" departDelay="0.91" arrival="870.00" arrivalLane="b2[1][1][1]b_1" arrivalPos="325.74" arrivalSpeed="13.07" duration="392.00" routeLength="3020.85" waitingTime="125.00" waitingCount="5" stopTime="0.00" timeLoss="170.10" rerouteNo="0" devices="vehroute_14 tripinfo_14 fcd_14" vType="DEFAULT_VEHTYPE" speedFactor="0.99" vaporized=""/>
    <tripinfo id="15" depart="549.00" departLane="a69_0" departPos="5.10" departSpeed="0.00" departDelay="0.30" arrival="873.00" arrivalLane="b2[1][1][1]b_0" arrivalPos="325.74" arrivalSpeed="12.12" duration="324.00" routeLength="3028.30" waitingTime="48.00" waitingCount="4" stopTime="0.00" timeLoss="86.46" rerouteNo="0" devices="vehroute_15 tripinfo_15 fcd_15" vType="DEFAULT_VEHTYPE" speedFactor="0.93" vaporized=""/>
    <tripinfo id="16" depart="625.00" departLane="a210_0" departPos="5.10" departSpeed="0.00" departDelay="0.31" arrival="975.00" arrivalLane="b10_0" arrivalPos="224.30" arrivalSpeed="12.13" duration="350.00" routeLength="2833.68" waitingTime="83.00" waitingCount="4" stopTime="0.00" timeLoss="117.02" rerouteNo="0" devices="vehroute_16 tripinfo_16 fcd_16" vType="DEFAULT_VEHTYPE" speedFactor="0.88" vaporized=""/>
    <tripinfo id="17" depart="632.00" departLane="a69_0" departPos="5.10" departSpeed="0.00" departDelay="0.91" arrival="997.00" arrivalLane="b2[1][1][1]b_0" arrivalPos="325.74" arrivalSpeed="11.97" duration="365.00" routeLength="3020.85" waitingTime="89.00" waitingCount="4" stopTime="0.00" timeLoss="130.80" rerouteNo="0" devices="vehroute_17 tripinfo_17 fcd_17" vType="DEFAULT_VEHTYPE" speedFactor="0.94" vaporized=""/>
    <tripinfo id="18" depart="691.00" departLane="a69_0" departPos="5.10" departSpeed="0.00" departDelay="0.28" arrival="997.00" arrivalLane="b2[1][1][1]b_1" arrivalPos="325.74" arrivalSpeed="12.75" duration="306.00" routeLength="3028.30" waitingTime="38.00" waitingCount="3" stopTime="0.00" timeLoss="69.99" rerouteNo="0" devices="vehroute_18 tripinfo_18 fcd_18" vType="DEFAULT_VEHTYPE" speedFactor="0.94" vaporized=""/>
    <tripinfo id="19" depart="724.00" departLane="a40_0" departPos="5.10" departSpeed="0.00" departDelay="0.64" arrival="1027.00" arrivalLane="b4[1][1][0]_0" arrivalPos="170.25" arrivalSpeed="14.80" duration="303.00" routeLength="2579.94" waitingTime="90.00" waitingCount="3" stopTime="0.00" timeLoss="137.83" rerouteNo="0" devices="vehroute_19 tripinfo_19 fcd_19" vType="DEFAULT_VEHTYPE" speedFactor="1.16" vaporized=""/>
    <tripinfo id="20" depart="751.00" departLane="a40_0" departPos="5.10" departSpeed="0.00" departDelay="0.36" arrival="1065.00" arrivalLane="b4[1][1][0]_0" arrivalPos="170.25" arrivalSpeed="13.93" duration="314.00" routeLength="2579.94" waitingTime="72.00" waitingCount="4" stopTime="0.00" timeLoss="127.05" rerouteNo="0" devices="vehroute_20 tripinfo_20 fcd_20" vType="DEFAULT_VEHTYPE" speedFactor="1.02" vaporized=""/>
    <tripinfo id="21" depart="816.00" departLane="a69_0" departPos="5.10" departSpeed="0.00" departDelay="0.04" arrival="1120.00" arrivalLane="b2[1][1][1]b_0" arrivalPos="325.74" arrivalSpeed="13.13" duration="304.00" routeLength="3028.30" waitingTime="47.00" waitingCount="4" stopTime="0.00" timeLoss="86.00" rerouteNo="0" devices="vehroute_21 tripinfo_21 fcd_21" vType="DEFAULT_VEHTYPE" speedFactor="1.01" vaporized=""/>
    <tripinfo id="22" depart="842.00" departLane="a69_0" departPos="5.10" departSpeed="0.00" departDelay="0.64" arrival="1121.00" arrivalLane="b2[1][1][1]b_0" arrivalPos="325.74" arrivalSpeed="12.95" duration="279.00" routeLength="3023.81" waitingTime="19.00" waitingCount="3" stopTime="0.00" timeLoss="52.66" rerouteNo="0" devices="vehroute_22 tripinfo_22 fcd_22" vType="DEFAULT_VEHTYPE" speedFactor="0.97" vaporized=""/>
    <tripinfo id="23" depart="845.00" departLane="a69_0" departPos="5.10" departSpeed="0.00" departDelay="0.29" arrival="1126.00" arrivalLane="b2[1][1][1]b_0" arrivalPos="325.74" arrivalSpeed="11.71" duration="281.00" routeLength="3023.81" waitingTime="5.00" waitingCount="1" stopTime="0.00" timeLoss="33.15" rerouteNo="0" devices="vehroute_23 tripinfo_23 fcd_23" vType="DEFAULT_VEHTYPE" speedFactor="0.89" vaporized=""/>
    <tripinfo id="24" depart="948.00" departLane="a69_0" departPos="5.10" departSpeed="0.00" departDelay="0.79" arrival="1272.00" arrivalLane="b2[1][1][1]b_0" arrivalPos="325.74" arrivalSpeed="10.52" duration="324.00" routeLength="3028.30" waitingTime="22.00" waitingCount="3" stopTime="0.00" timeLoss="56.78" rerouteNo="0" devices="vehroute_24 tripinfo_24 fcd_24" vType="DEFAULT_VEHTYPE" speedFactor="0.83" vaporized=""/>
    <tripinfo id="25" depart="987.00" departLane="a210_0" departPos="5.10" departSpeed="0.00" departDelay="0.02" arrival="1311.00" arrivalLane="b10_0" arrivalPos="224.30" arrivalSpeed="11.48" duration="324.00" routeLength="2833.68" waitingTime="60.00" waitingCount="2" stopTime="0.00" timeLoss="89.67" rerouteNo="0" devices="vehroute_25 tripinfo_25 fcd_25" vType="DEFAULT_VEHTYPE" speedFactor="0.87" vaporized=""/>
    <tripinfo id="28" depart="1100.00" departLane="a210_0" departPos="5.10" departSpeed="0.00" departDelay="0.11" arrival="1366.00" arrivalLane="b10_0" arrivalPos="224.30" arrivalSpeed="15.71" duration="266.00" routeLength="2833.68" waitingTime="49.00" waitingCount="4" stopTime="0.00" timeLoss="85.04" rerouteNo="0" devices="vehroute_28 tripinfo_28 fcd_28" vType="DEFAULT_VEHTYPE" speedFactor="1.13" vaporized=""/>
    <tripinfo id="27" depart="1097.00" departLane="a69_0" departPos="5.10" departSpeed="0.00" departDelay="0.16" arrival="1392.00" arrivalLane="b2[1][1][1]b_0" arrivalPos="325.74" arrivalSpeed="12.71" duration="295.00" routeLength="3020.85" waitingTime="28.00" waitingCount="3" stopTime="0.00" timeLoss="63.59" rerouteNo="0" devices="vehroute_27 tripinfo_27 fcd_27" vType="DEFAULT_VEHTYPE" speedFactor="0.95" vaporized=""/>
    <tripinfo id="26" depart="1092.00" departLane="a69_0" departPos="5.10" departSpeed="0.00" departDelay="0.74" arrival="1394.00" arrivalLane="b2[1][1][1]b_1" arrivalPos="325.74" arrivalSpeed="11.86" duration="302.00" routeLength="3028.30" waitingTime="26.00" waitingCount="3" stopTime="0.00" timeLoss="61.04" rerouteNo="0" devices="vehroute_26 tripinfo_26 fcd_26" vType="DEFAULT_VEHTYPE" speedFactor="0.92" vaporized=""/>
    <tripinfo id="30" depart="1168.00" departLane="a210_0" departPos="5.10" departSpeed="0.00" departDelay="0.40" arrival="1505.00" arrivalLane="b10_0" arrivalPos="224.30" arrivalSpeed="15.62" duration="337.00" routeLength="2833.68" waitingTime="112.00" waitingCount="6" stopTime="0.00" timeLoss="163.32" rerouteNo="0" devices="vehroute_30 tripinfo_30 fcd_30" vType="DEFAULT_VEHTYPE" speedFactor="1.18" vaporized=""/>
    <tripinfo id="32" depart="1246.00" departLane="a210_0" departPos="5.10" departSpeed="0.00" departDelay="0.04" arrival="1509.00" arrivalLane="b10_0" arrivalPos="224.30" arrivalSpeed="13.67" duration="263.00" routeLength="2833.68" waitingTime="18.00" waitingCount="3" stopTime="0.00" timeLoss="59.61" rerouteNo="0" devices="vehroute_32 tripinfo_32 fcd_32" vType="DEFAULT_VEHTYPE" speedFactor="1.01" vaporized=""/>
    <tripinfo id="29" depart="1165.00" departLane="a210_0" departPos="5.10" departSpeed="0.00" departDelay="0.86" arrival="1513.00" arrivalLane="b10_0" arrivalPos="224.30" arrivalSpeed="12.08" duration="348.00" routeLength="2830.72" waitingTime="90.00" waitingCount="3" stopTime="0.00" timeLoss="128.14" rerouteNo="0" devices="vehroute_29 tripinfo_29 fcd_29" vType="DEFAULT_VEHTYPE" speedFactor="0.93" vaporized=""/>
    <tripinfo id="33" depart="1252.00" departLane="a40_0" departPos="5.10" departSpeed="0.00" departDelay="0.74" arrival="1516.00" arrivalLane="b4[1][1][0]_0" arrivalPos="170.25" arrivalSpeed="15.22" duration="264.00" routeLength="2579.94" waitingTime="50.00" waitingCount="4" stopTime="0.00" timeLoss="101.90" rerouteNo="0" devices="vehroute_33 tripinfo_33 fcd_33" vType="DEFAULT_VEHTYPE" speedFactor="1.17" vaporized=""/>
    <tripinfo id="34" depart="1278.00" departLane="a40_0" departPos="5.10" departSpeed="0.00" departDelay="0.01" arrival="1532.00" arrivalLane="b4[1][1][0]_0" arrivalPos="170.25" arrivalSpeed="13.23" duration="254.00" routeLength="2579.94" waitingTime="25.00" waitingCount="2" stopTime="0.00" timeLoss="63.00" rerouteNo="0" devices="vehroute_34 tripinfo_34 fcd_34" vType="DEFAULT_VEHTYPE" speedFactor="0.99" vaporized=""/>
    <tripinfo id="31" depart="1199.00" departLane="a69_0" departPos="5.10" departSpeed="0.00" departDelay="0.19" arrival="1586.00" arrivalLane="b2[1][1][1]b_0" arrivalPos="325.74" arrivalSpeed="15.08" duration="387.00" routeLength="3025.34" waitingTime="158.00" waitingCount="4" stopTime="0.00" timeLoss="196.30" rerouteNo="0" devices="vehroute_31 tripinfo_31 fcd_31" vType="DEFAULT_VEHTYPE" speedFactor="1.15" vaporized=""/>
    <tripinfo id="35" depart="1297.00" departLane="a69_0" departPos="5.10" departSpeed="0.00" departDelay="0.51" arrival="1594.00" arrivalLane="b2[1][1][1]b_0" arrivalPos="325.74" arrivalSpeed="14.13" duration="297.00" routeLength="3028.30" waitingTime="47.00" waitingCount="3" stopTime="0.00" timeLoss="81.11" rerouteNo="0" devices="vehroute_35 tripinfo_35 fcd_35" vType="DEFAULT_VEHTYPE" speedFactor="1.02" vaporized=""/>
    <tripinfo id="36" depart="1371.00" departLane="a40_0" departPos="5.10" departSpeed="0.00" departDelay="0.76" arrival="1665.00" arrivalLane="b4[1][1][0]_0" arrivalPos="170.25" arrivalSpeed="12.46" duration="294.00" routeLength="2579.94" waitingTime="52.00" waitingCount="4" stopTime="0.00" timeLoss="98.59" rerouteNo="0" devices="vehroute_36 tripinfo_36 fcd_36" vType="DEFAULT_VEHTYPE" speedFactor="0.97" vaporized=""/>
    <tripinfo id="38" depart="1438.00" departLane="a210_0" departPos="5.10" departSpeed="0.00" departDelay="0.46" arrival="1683.00" arrivalLane="b10_0" arrivalPos="224.30" arrivalSpeed="14.68" duration="245.00" routeLength="2833.68" waitingTime="36.00" waitingCount="2" stopTime="0.00" timeLoss="58.92" rerouteNo="0" devices="vehroute_38 tripinfo_38 fcd_38" vType="DEFAULT_VEHTYPE" speedFactor="1.10" vaporized=""/>
    <tripinfo id="37" depart="1430.00" departLane="a69_0" departPos="5.10" departSpeed="0.00" departDelay="0.87" arrival="1708.00" arrivalLane="b2[1][1][1]b_0" arrivalPos="325.74" arrivalSpeed="16.07" duration="278.00" routeLength="3028.30" waitingTime="54.00" waitingCount="3" stopTime="0.00" timeLoss="90.95" rerouteNo="0" devices="vehroute_37 tripinfo_37 fcd_37" vType="DEFAULT_VEHTYPE" speedFactor="1.18" vaporized=""/>
    <tripinfo id="39" depart="1451.00" departLane="a69_0" departPos="5.10" departSpeed="0.00" departDelay="0.27" arrival="1727.00" arrivalLane="b2[1][1][1]b_0" arrivalPos="325.74" arrivalSpeed="11.47" duration="276.00" routeLength="3023.81" waitingTime="6.00" waitingCount="1" stopTime="0.00" timeLoss="31.52" rerouteNo="0" devices="vehroute_39 tripinfo_39 fcd_39" vType="DEFAULT_VEHTYPE" speedFactor="0.90" vaporized=""/>
    <tripinfo id="42" depart="1675.00" departLane="a210_0" departPos="5.10" departSpeed="0.00" departDelay="0.26" arrival="1951.00" arrivalLane="b10_0" arrivalPos="224.30" arrivalSpeed="14.43" duration="276.00" routeLength="2833.68" waitingTime="67.00" waitingCount="2" stopTime="0.00" timeLoss="88.58" rerouteNo="0" devices="vehroute_42 tripinfo_42 fcd_42" vType="DEFAULT_VEHTYPE" speedFactor="1.09" vaporized=""/>
    <tripinfo id="40" depart="1610.00" departLane="a69_0" departPos="5.10" departSpeed="0.00" departDelay="0.07" arrival="1976.00" arrivalLane="b2[1][1][1]b_0" arrivalPos="325.74" arrivalSpeed="14.18" duration="366.00" routeLength="3023.81" waitingTime="114.00" waitingCount="3" stopTime="0.00" timeLoss="152.61" rerouteNo="0" devices="vehroute_40 tripinfo_40 fcd_40" vType="DEFAULT_VEHTYPE" speedFactor="1.03" vaporized=""/>
    <tripinfo id="41" depart="1622.00" departLane="a69_0" departPos="5.10" departSpeed="0.00" departDelay="0.66" arrival="1977.00" arrivalLane="b2[1][1][1]b_0" arrivalPos="325.74" arrivalSpeed="12.83" duration="355.00" routeLength="3023.81" waitingTime="91.00" waitingCount="3" stopTime="0.00" timeLoss="124.62" rerouteNo="0" devices="vehroute_41 tripinfo_41 fcd_41" vType="DEFAULT_VEHTYPE" speedFactor="0.96" vaporized=""/>
    <tripinfo id="43" depart="1754.00" departLane="a69_0" departPos="5.10" departSpeed="0.00" departDelay="0.58" arrival="2100.00" arrivalLane="b2[1][1][1]b_0" arrivalPos="325.74" arrivalSpeed="13.19" duration="346.00" routeLength="3028.30" waitingTime="94.00" waitingCount="3" stopTime="0.00" timeLoss="133.82" rerouteNo="0" devices="vehroute_43 tripinfo_43 fcd_43" vType="DEFAULT_VEHTYPE" speedFactor="1.04" vaporized=""/>
    <tripinfo id="44" depart="1790.00" departLane="a69_0" departPos="5.10" departSpeed="0.00" departDelay="0.93" arrival="2100.00" arrivalLane="b2[1][1][1]b_1" arrivalPos="325.74" arrivalSpeed="14.32" duration="310.00" routeLength="3023.81" waitingTime="70.00" waitingCount="2" stopTime="0.00" timeLoss="98.95" rerouteNo="0" devices="vehroute_44 tripinfo_44 fcd_44" vType="DEFAULT_VEHTYPE" speedFactor="1.04" vaporized=""/>
    <tripinfo id="45" depart="1857.00" departLane="a40_0" departPos="5.10" departSpeed="0.00" departDelay="0.55" arrival="2136.00" arrivalLane="b4[1][1][0]_0" arrivalPos="170.25" arrivalSpeed="14.37" duration="279.00" routeLength="2579.94" waitingTime="55.00" waitingCount="4" stopTime="0.00" timeLoss="102.68" rerouteNo="0" devices="vehroute_45 tripinfo_45 fcd_45" vType="DEFAULT_VEHTYPE" speedFactor="1.09" vaporized=""/>
    <tripinfo id="46" depart="1869.00" departLane="a69_0" departPos="5.10" departSpeed="0.00" departDelay="0.38" arrival="2226.00" arrivalLane="b2[1][1][1]b_0" arrivalPos="325.74" arrivalSpeed="12.64" duration="357.00" routeLength="3025.34" waitingTime="95.00" waitingCount="4" stopTime="0.00" timeLoss="135.55" rerouteNo="0" devices="vehroute_46 tripinfo_46 fcd_46" vType="DEFAULT_VEHTYPE" speedFactor="1.00" vaporized=""/>
    <tripinfo id="47" depart="1876.00" departLane="a69_0" departPos="5.10" departSpeed="0.00" departDelay="0.55" arrival="2229.00" arrivalLane="b2[1][1][1]b_0" arrivalPos="325.74" arrivalSpeed="12.33" duration="353.00" routeLength="3023.81" waitingTime="71.00" waitingCount="2" stopTime="0.00" timeLoss="108.34" rerouteNo="0" devices="vehroute_47 tripinfo_47 fcd_47" vType="DEFAULT_VEHTYPE" speedFactor="0.90" vaporized=""/>
    <tripinfo id="53" depart="2009.00" departLane="a210_0" departPos="5.10" departSpeed="0.00" departDelay="0.98" arrival="2277.00" arrivalLane="b10_0" arrivalPos="224.30" arrivalSpeed="15.15" duration="268.00" routeLength="2833.68" waitingTime="46.00" waitingCount="4" stopTime="0.00" timeLoss="81.43" rerouteNo="0" devices="vehroute_53 tripinfo_53 fcd_53" vType="DEFAULT_VEHTYPE" speedFactor="1.10" vaporized=""/>
    <tripinfo id="52" depart="1994.00" departLane="a210_0" departPos="5.10" departSpeed="0.00" departDelay="0.31" arrival="2280.00" arrivalLane="b10_0" arrivalPos="224.30" arrivalSpeed="13.53" duration="286.00" routeLength="2833.68" waitingTime="55.00" waitingCount="3" stopTime="0.00" timeLoss="85.25" rerouteNo="0" devices="vehroute_52 tripinfo_52 fcd_52" vType="DEFAULT_VEHTYPE" speedFactor="1.02" vaporized=""/>
    <tripinfo id="54" depart="2025.00" departLane="a210_0" departPos="5.10" departSpeed="0.00" departDelay="0.73" arrival="2283.00" arrivalLane="b10_0" arrivalPos="224.30" arrivalSpeed="13.76" duration="258.00" routeLength="2833.68" waitingTime="29.00" waitingCount="2" stopTime="0.00" timeLoss="53.67" rerouteNo="0" devices="vehroute_54 tripinfo_54 fcd_54" vType="DEFAULT_VEHTYPE" speedFactor="1.00" vaporized=""/>
    <tripinfo id="51" depart="1947.00" departLane="a69_0" departPos="5.10" departSpeed="0.00" departDelay="2.96" arrival="2347.00" arrivalLane="b2[1][1][1]b_0" arrivalPos="325.74" arrivalSpeed="15.42" duration="400.00" routeLength="3025.34" waitingTime="118.00" waitingCount="5" stopTime="0.00" timeLoss="211.80" rerouteNo="0" devices="vehroute_51 tripinfo_51 fcd_51" vType="DEFAULT_VEHTYPE" speedFactor="1.17" vaporized=""/>
    <tripinfo id="48" depart="1919.00" departLane="a69_0" departPos="5.10" departSpeed="0.00" departDelay="0.35" arrival="2355.00" arrivalLane="b2[1][1][1]b_0" arrivalPos="325.74" arrivalSpeed="12.07" duration="436.00" routeLength="3020.85" waitingTime="137.00" waitingCount="6" stopTime="0.00" timeLoss="185.09" rerouteNo="0" devices="vehroute_48 tripinfo_48 fcd_48" vType="DEFAULT_VEHTYPE" speedFactor="0.88" vaporized=""/>
    <tripinfo id="49" depart="1929.00" departLane="a69_0" departPos="5.10" departSpeed="0.00" departDelay="0.02" arrival="2356.00" arrivalLane="b2[1][1][1]b_1" arrivalPos="325.74" arrivalSpeed="10.77" duration="427.00" routeLength="3020.85" waitingTime="109.00" waitingCount="6" stopTime="0.00" timeLoss="167.97" rerouteNo="0" devices="vehroute_49 tripinfo_49 fcd_49" vType="DEFAULT_VEHTYPE" speedFactor="0.85" vaporized=""/>
    <tripinfo id="50" depart="1944.00" departLane="a69_0" departPos="5.10" departSpeed="0.00" departDelay="0.15" arrival="2358.00" arrivalLane="b2[1][1][1]b_0" arrivalPos="325.74" arrivalSpeed="11.24" duration="414.00" routeLength="3025.34" waitingTime="106.00" waitingCount="5" stopTime="0.00" timeLoss="155.97" rerouteNo="0" devices="vehroute_50 tripinfo_50 fcd_50" vType="DEFAULT_VEHTYPE" speedFactor="0.85" vaporized=""/>
    <tripinfo id="57" depart="2183.00" departLane="a210_0" departPos="5.10" departSpeed="0.00" departDelay="0.49" arrival="2416.00" arrivalLane="b10_0" arrivalPos="224.30" arrivalSpeed="15.14" duration="233.00" routeLength="2833.68" waitingTime="32.00" waitingCount="2" stopTime="0.00" timeLoss="53.64" rerouteNo="0" devices="vehroute_57 tripinfo_57 fcd_57" vType="DEFAULT_VEHTYPE" speedFactor="1.14" vaporized=""/>
    <tripinfo id="55" depart="2083.00" departLane="a69_0" departPos="5.10" departSpeed="0.00" departDelay="0.81" arrival="2476.00" arrivalLane="b2[1][1][1]b_0" arrivalPos="325.74" arrivalSpeed="13.75" duration="393.00" routeLength="3025.34" waitingTime="127.00" waitingCount="5" stopTime="0.00" timeLoss="171.80" rerouteNo="0" devices="vehroute_55 tripinfo_55 fcd_55" vType="DEFAULT_VEHTYPE" speedFactor="1.00" vaporized=""/>
    <tripinfo id="56" depart="2163.00" departLane="a40_0" departPos="5.10" departSpeed="0.00" departDelay="0.86" arrival="2531.00" arrivalLane="b4[1][1][0]_0" arrivalPos="170.25" arrivalSpeed="12.31" duration="368.00" routeLength="2579.94" waitingTime="105.00" waitingCount="5" stopTime="0.00" timeLoss="156.20" rerouteNo="0" devices="vehroute_56 tripinfo_56 fcd_56" vType="DEFAULT_VEHTYPE" speedFactor="0.90" vaporized=""/>
    <tripinfo id="58" depart="2245.00" departLane="a69_0" departPos="5.10" departSpeed="0.00" departDelay="0.09" arrival="2600.00" arrivalLane="b2[1][1][1]b_0" arrivalPos="325.74" arrivalSpeed="13.57" duration="355.00" routeLength="3028.30" waitingTime="99.00" waitingCount="4" stopTime="0.00" timeLoss="139.65" rerouteNo="0" devices="vehroute_58 tripinfo_58 fcd_58" vType="DEFAULT_VEHTYPE" speedFactor="1.02" vaporized=""/>
    <tripinfo id="60" depart="2344.00" departLane="a210_0" departPos="5.10" departSpeed="0.00" departDelay="0.84" arrival="2609.00" arrivalLane="b10_0" arrivalPos="224.30" arrivalSpeed="14.00" duration="265.00" routeLength="2830.72" waitingTime="46.00" waitingCount="3" stopTime="0.00" timeLoss="75.65" rerouteNo="0" devices="vehroute_60 tripinfo_60 fcd_60" vType="DEFAULT_VEHTYPE" speedFactor="1.08" vaporized=""/>
    <tripinfo id="62" depart="2394.00" departLane="a210_0" departPos="5.10" departSpeed="0.00" departDelay="0.32" arrival="2611.00" arrivalLane="b10_0" arrivalPos="224.30" arrivalSpeed="13.56" duration="217.00" routeLength="2833.68" waitingTime="0.00" waitingCount="0" stopTime="0.00" timeLoss="15.53" rerouteNo="0" devices="vehroute_62 tripinfo_62 fcd_62" vType="DEFAULT_VEHTYPE" speedFactor="1.02" vaporized=""/>
    <tripinfo id="61" depart="2383.00" departLane="a69_0" departPos="5.10" departSpeed="0.00" departDelay="0.38" arrival="2724.00" arrivalLane="b2[1][1][1]b_0" arrivalPos="325.74" arrivalSpeed="15.16" duration="341.00" routeLength="3020.85" waitingTime="89.00" waitingCount="4" stopTime="0.00" timeLoss="144.53" rerouteNo="0" devices="vehroute_61 tripinfo_61 fcd_61" vType="DEFAULT_VEHTYPE" speedFactor="1.12" vaporized=""/>
    <tripinfo id="59" depart="2308.00" departLane="a69_0" departPos="5.10" departSpeed="0.00" departDelay="0.50" arrival="2727.00" arrivalLane="b2[1][1][1]b_0" arrivalPos="325.74" arrivalSpeed="12.95" duration="419.00" routeLength="3025.34" waitingTime="143.00" waitingCount="6" stopTime="0.00" timeLoss="191.67" rerouteNo="0" devices="vehroute_59 tripinfo_59 fcd_59" vType="DEFAULT_VEHTYPE" speedFactor="0.97" vaporized=""/>
    <tripinfo id="63" depart="2411.00" departLane="a69_0" departPos="5.10" departSpeed="0.00" departDelay="0.85" arrival="2729.00" arrivalLane="b2[1][1][1]b_0" arrivalPos="325.74" arrivalSpeed="12.58" duration="318.00" routeLength="3028.30" waitingTime="62.00" waitingCount="3" stopTime="0.00" timeLoss="94.41" rerouteNo="0" devices="vehroute_63 tripinfo_63 fcd_63" vType="DEFAULT_VEHTYPE" speedFactor="0.99" vaporized=""/>
    <tripinfo id="65" depart="2493.00" departLane="a40_0" departPos="5.10" departSpeed="0.00" departDelay="0.23" arrival="2779.00" arrivalLane="b4[1][1][0]_0" arrivalPos="170.25" arrivalSpeed="11.13" duration="286.00" routeLength="2579.94" waitingTime="18.00" waitingCount="5" stopTime="0.00" timeLoss="69.19" rerouteNo="0" devices="vehroute_65 tripinfo_65 fcd_65" vType="DEFAULT_VEHTYPE" speedFactor="0.88" vaporized=""/>
    <tripinfo id="66" depart="2502.00" departLane="a40_0" departPos="5.10" departSpeed="0.00" departDelay="0.18" arrival="2780.00" arrivalLane="b4[1][1][0]_1" arrivalPos="170.25" arrivalSpeed="11.30" duration="278.00" routeLength="2567.39" waitingTime="9.00" waitingCount="4" stopTime="0.00" timeLoss="68.76" rerouteNo="0" devices="vehroute_66 tripinfo_66 fcd_66" vType="DEFAULT_VEHTYPE" speedFactor="0.91" vaporized=""/>
    <tripinfo id="64" depart="2485.00" departLane="a69_0" departPos="5.10" departSpeed="0.00" departDelay="0.98" arrival="2853.00" arrivalLane="b2[1][1][1]b_0" arrivalPos="325.74" arrivalSpeed="12.73" duration="368.00" routeLength="3020.85" waitingTime="93.00" waitingCount="5" stopTime="0.00" timeLoss="133.48" rerouteNo="0" devices="vehroute_64 tripinfo_64 fcd_64" vType="DEFAULT_VEHTYPE" speedFactor="0.94" vaporized=""/>