<?xml version="1.0" encoding="UTF-8"?>

<!-- generated on 2025-03-21 18:06:35 by Eclipse SUMO sumo Version 1.21.0
<sumoConfiguration xmlns:xsi="http://www.w3.org/2001/XMLSchema-instance" xsi:noNamespaceSchemaLocation="http://sumo.dlr.de/xsd/sumoConfiguration.xsd">

    <input>
        <net-file value="${STATICPATH}/joined_lanes.net.xml"/>
        <route-files value="${SIMULATIONPATH}/generatedRoutes.rou.xml"/>
        <additional-files value="${STATICPATH}/detectors.add.xml,${STATICPATH}/joined_vtypes.add.xml,${STATICPATH}/joined_tls.add.xml"/>
    </input>

    <output>
        <fcd-output value="${SIMULATIONPATH}/fcd.xml"/>
        <queue-output value="${SIMULATIONPATH}/queue.xml"/>
        <summary-output value="${SIMULATIONPATH}/summary.xml"/>
        <tripinfo-output value="${SIMULATIONPATH}/tripinfos.xml"/>
        <vehroute-output value="${SIMULATIONPATH}/vehroute.xml"/>
        <save-state.prefix value="configs\state"/>
    </output>

    <processing>
        <ignore-junction-blocker value="1"/>
        <ignore-route-errors value="true"/>
        <time-to-teleport value="-1"/>
    </processing>

    <report>
        <log value="C:/Users/fabio/Desktop/sumo_log.txt"/>
        <no-step-log value="true"/>
    </report>

    <emissions>
        <phemlight-path value="configs\./PHEMlight/"/>
    </emissions>

    <traci_server>
        <remote-port value="60301"/>
    </traci_server>

</sumoConfiguration>
-->

<tripinfos xmlns:xsi="http://www.w3.org/2001/XMLSchema-instance" xsi:noNamespaceSchemaLocation="http://sumo.dlr.de/xsd/tripinfo_file.xsd">
    <tripinfo id="0" depart="5.00" departLane="a16_0" departPos="5.10" departSpeed="0.00" departDelay="0.55" arrival="348.00" arrivalLane="b3[1]b_0" arrivalPos="239.77" arrivalSpeed="13.43" duration="343.00" routeLength="3381.18" waitingTime="49.00" waitingCount="6" stopTime="0.00" timeLoss="109.71" rerouteNo="0" devices="vehroute_0 tripinfo_0 fcd_0" vType="DEFAULT_VEHTYPE" speedFactor="1.06" vaporized=""/>
    <tripinfo id="3" depart="83.00" departLane="a16_0" departPos="5.10" departSpeed="0.00" departDelay="0.58" arrival="489.00" arrivalLane="b3[1]b_0" arrivalPos="239.77" arrivalSpeed="14.29" duration="406.00" routeLength="3375.93" waitingTime="86.00" waitingCount="5" stopTime="0.00" timeLoss="175.57" rerouteNo="0" devices="vehroute_3 tripinfo_3 fcd_3" vType="DEFAULT_VEHTYPE" speedFactor="1.08" vaporized=""/>
    <tripinfo id="2" depart="73.00" departLane="a16_0" departPos="5.10" departSpeed="0.00" departDelay="0.91" arrival="491.00" arrivalLane="b3[1]b_0" arrivalPos="239.77" arrivalSpeed="13.98" duration="418.00" routeLength="3381.18" waitingTime="94.00" waitingCount="6" stopTime="0.00" timeLoss="171.07" rerouteNo="0" devices="vehroute_2 tripinfo_2 fcd_2" vType="DEFAULT_VEHTYPE" speedFactor="1.01" vaporized=""/>
    <tripinfo id="1" depart="57.00" departLane="a16_0" departPos="5.10" departSpeed="0.00" departDelay="0.04" arrival="496.00" arrivalLane="b3[1]b_0" arrivalPos="239.77" arrivalSpeed="12.01" duration="439.00" routeLength="3381.18" waitingTime="110.00" waitingCount="6" stopTime="0.00" timeLoss="172.74" rerouteNo="0" devices="vehroute_1 tripinfo_1 fcd_1" vType="DEFAULT_VEHTYPE" speedFactor="0.94" vaporized=""/>
    <tripinfo id="4" depart="189.00" departLane="a16_0" departPos="5.10" departSpeed="0.00" departDelay="0.58" arrival="653.00" arrivalLane="b3[1]b_0" arrivalPos="239.77" arrivalSpeed="13.99" duration="464.00" routeLength="3381.18" waitingTime="156.00" waitingCount="7" stopTime="0.00" timeLoss="222.82" rerouteNo="0" devices="vehroute_4 tripinfo_4 fcd_4" vType="DEFAULT_VEHTYPE" speedFactor="1.03" vaporized=""/>
    <tripinfo id="6" depart="252.00" departLane="a16_0" departPos="5.10" departSpeed="0.00" departDelay="0.25" arrival="784.00" arrivalLane="b3[1]b_0" arrivalPos="239.77" arrivalSpeed="13.36" duration="532.00" routeLength="3381.18" waitingTime="207.00" waitingCount="6" stopTime="0.00" timeLoss="294.60" rerouteNo="0" devices="vehroute_6 tripinfo_6 fcd_6" vType="DEFAULT_VEHTYPE" speedFactor="1.05" vaporized=""/>
    <tripinfo id="5" depart="228.00" departLane="a16_0" departPos="5.10" departSpeed="0.00" departDelay="0.81" arrival="792.00" arrivalLane="b3[1]b_0" arrivalPos="239.77" arrivalSpeed="11.20" duration="564.00" routeLength="3375.93" waitingTime="205.00" waitingCount="6" stopTime="0.00" timeLoss="265.21" rerouteNo="0" devices="vehroute_5 tripinfo_5 fcd_5" vType="DEFAULT_VEHTYPE" speedFactor="0.83" vaporized=""/>
    <tripinfo id="7" depart="320.00" departLane="a16_0" departPos="5.10" departSpeed="0.00" departDelay="0.44" arrival="843.00" arrivalLane="b3[1]b_0" arrivalPos="239.77" arrivalSpeed="11.20" duration="523.00" routeLength="3381.18" waitingTime="188.00" waitingCount="5" stopTime="0.00" timeLoss="242.12" rerouteNo="0" devices="vehroute_7 tripinfo_7 fcd_7" vType="DEFAULT_VEHTYPE" speedFactor="0.89" vaporized=""/>
    <tripinfo id="10" depart="432.00" departLane="a16_0" departPos="5.10" departSpeed="0.00" departDelay="0.62" arrival="919.00" arrivalLane="b3[1]b_0" arrivalPos="239.77" arrivalSpeed="15.09" duration="487.00" routeLength="3375.93" waitingTime="147.00" waitingCount="7" stopTime="0.00" timeLoss="259.81" rerouteNo="0" devices="vehroute_10 tripinfo_10 fcd_10" vType="DEFAULT_VEHTYPE" speedFactor="1.09" vaporized=""/>
    <tripinfo id="8" depart="335.00" departLane="a16_0" departPos="5.10" departSpeed="0.00" departDelay="0.46" arrival="924.00" arrivalLane="b3[1]b_0" arrivalPos="239.77" arrivalSpeed="11.74" duration="589.00" routeLength="3381.18" waitingTime="241.00" waitingCount="8" stopTime="0.00" timeLoss="323.29" rerouteNo="0" devices="vehroute_8 tripinfo_8 fcd_8" vType="DEFAULT_VEHTYPE" speedFactor="0.94" vaporized=""/>
    <tripinfo id="9" depart="424.00" departLane="a16_0" departPos="5.10" departSpeed="0.00" departDelay="0.46" arrival="929.00" arrivalLane="b3[1]b_0" arrivalPos="239.77" arrivalSpeed="11.87" duration="505.00" routeLength="3381.18" waitingTime="148.00" waitingCount="7" stopTime="0.00" timeLoss="214.29" rerouteNo="0" devices="vehroute_9 tripinfo_9 fcd_9" vType="DEFAULT_VEHTYPE" speedFactor="0.86" vaporized=""/>
    <tripinfo id="11" depart="509.00" departLane="a16_0" departPos="5.10" departSpeed="0.00" departDelay="0.40" arrival="947.00" arrivalLane="b3[1]b_0" arrivalPos="239.77" arrivalSpeed="13.42" duration="438.00" routeLength="3381.18" waitingTime="143.00" waitingCount="5" stopTime="0.00" timeLoss="196.53" rerouteNo="0" devices="vehroute_11 tripinfo_11 fcd_11" vType="DEFAULT_VEHTYPE" speedFactor="1.03" vaporized=""/>
    <tripinfo id="12" depart="554.00" departLane="a16_0" departPos="5.10" departSpeed="0.00" departDelay="0.35" arrival="947.00" arrivalLane="b3[1]b_1" arrivalPos="239.77" arrivalSpeed="13.46" duration="393.00" routeLength="3375.93" waitingTime="93.00" waitingCount="4" stopTime="0.00" timeLoss="155.50" rerouteNo="0" devices="vehroute_12 tripinfo_12 fcd_12" vType="DEFAULT_VEHTYPE" speedFactor="1.05" vaporized=""/>
    <tripinfo id="13" depart="574.00" departLane="a16_0" departPos="5.10" departSpeed="0.00" departDelay="0.51" arrival="948.00" arrivalLane="b3[1]b_1" arrivalPos="239.77" arrivalSpeed="15.52" duration="374.00" routeLength="3381.18" waitingTime="78.00" waitingCount="4" stopTime="0.00" timeLoss="152.83" rerouteNo="0" devices="vehroute_13 tripinfo_13 fcd_13" vType="DEFAULT_VEHTYPE" speedFactor="1.12" vaporized=""/>
    <tripinfo id="14" depart="583.00" departLane="a16_0" departPos="5.10" departSpeed="0.00" departDelay="0.65" arrival="1052.00" arrivalLane="b3[1]b_0" arrivalPos="239.77" arrivalSpeed="12.78" duration="469.00" routeLength="3381.18" waitingTime="147.00" waitingCount="5" stopTime="0.00" timeLoss="219.39" rerouteNo="0" devices="vehroute_14 tripinfo_14 fcd_14" vType="DEFAULT_VEHTYPE" speedFactor="0.99" vaporized=""/>
    <tripinfo id="15" depart="614.00" departLane="a16_0" departPos="5.10" departSpeed="0.00" departDelay="0.28" arrival="1082.00" arrivalLane="b3[1]b_0" arrivalPos="239.77" arrivalSpeed="12.81" duration="468.00" routeLength="3381.18" waitingTime="147.00" waitingCount="5" stopTime="0.00" timeLoss="199.79" rerouteNo="0" devices="vehroute_15 tripinfo_15 fcd_15" vType="DEFAULT_VEHTYPE" speedFactor="0.93" vaporized=""/>
    <tripinfo id="17" depart="764.00" departLane="a16_0" departPos="5.10" departSpeed="0.00" departDelay="0.86" arrival="1109.00" arrivalLane="b3[1]b_0" arrivalPos="239.77" arrivalSpeed="12.84" duration="345.00" routeLength="3381.18" waitingTime="22.00" waitingCount="2" stopTime="0.00" timeLoss="80.39" rerouteNo="0" devices="vehroute_17 tripinfo_17 fcd_17" vType="DEFAULT_VEHTYPE" speedFactor="0.94" vaporized=""/>
    <tripinfo id="16" depart="686.00" departLane="a16_0" departPos="5.10" departSpeed="0.00" departDelay="0.83" arrival="1116.00" arrivalLane="b3[1]b_0" arrivalPos="239.77" arrivalSpeed="11.59" duration="430.00" routeLength="3381.18" waitingTime="90.00" waitingCount="5" stopTime="0.00" timeLoss="148.05" rerouteNo="0" devices="vehroute_16 tripinfo_16 fcd_16" vType="DEFAULT_VEHTYPE" speedFactor="0.88" vaporized=""/>
    <tripinfo id="19" depart="819.00" departLane="a16_0" departPos="5.10" departSpeed="0.00" departDelay="0.51" arrival="1223.00" arrivalLane="b3[1]b_0" arrivalPos="239.77" arrivalSpeed="15.11" duration="404.00" routeLength="3381.18" waitingTime="107.00" waitingCount="5" stopTime="0.00" timeLoss="189.31" rerouteNo="0" devices="vehroute_19 tripinfo_19 fcd_19" vType="DEFAULT_VEHTYPE" speedFactor="1.16" vaporized=""/>
    <tripinfo id="21" depart="861.00" departLane="a16_0" departPos="5.10" departSpeed="0.00" departDelay="0.40" arrival="1229.00" arrivalLane="b3[1]b_1" arrivalPos="239.77" arrivalSpeed="13.63" duration="368.00" routeLength="3375.93" waitingTime="49.00" waitingCount="4" stopTime="0.00" timeLoss="122.41" rerouteNo="0" devices="vehroute_21 tripinfo_21 fcd_21" vType="DEFAULT_VEHTYPE" speedFactor="1.01" vaporized=""/>
    <tripinfo id="18" depart="806.00" departLane="a16_0" departPos="5.10" departSpeed="0.00" departDelay="0.99" arrival="1230.00" arrivalLane="b3[1]b_0" arrivalPos="239.77" arrivalSpeed="12.03" duration="424.00" routeLength="3375.93" waitingTime="100.00" waitingCount="6" stopTime="0.00" timeLoss="159.00" rerouteNo="0" devices="vehroute_18 tripinfo_18 fcd_18" vType="DEFAULT_VEHTYPE" speedFactor="0.94" vaporized=""/>
    <tripinfo id="20" depart="831.00" departLane="a16_0" departPos="5.10" departSpeed="0.00" departDelay="0.01" arrival="1231.00" arrivalLane="b3[1]b_1" arrivalPos="239.77" arrivalSpeed="12.96" duration="400.00" routeLength="3381.18" waitingTime="75.00" waitingCount="5" stopTime="0.00" timeLoss="155.51" rerouteNo="0" devices="vehroute_20 tripinfo_20 fcd_20" vType="DEFAULT_VEHTYPE" speedFactor="1.02" vaporized=""/>
    <tripinfo id="22" depart="878.00" departLane="a16_0" departPos="5.10" departSpeed="0.00" departDelay="0.84" arrival="1356.00" arrivalLane="b3[1]b_0" arrivalPos="239.77" arrivalSpeed="12.88" duration="478.00" routeLength="3381.18" waitingTime="161.00" waitingCount="6" stopTime="0.00" timeLoss="223.40" rerouteNo="0" devices="vehroute_22 tripinfo_22 fcd_22" vType="DEFAULT_VEHTYPE" speedFactor="0.97" vaporized=""/>
    <tripinfo id="23" depart="926.00" departLane="a16_0" departPos="5.10" departSpeed="0.00" departDelay="0.63" arrival="1360.00" arrivalLane="b3[1]b_0" arrivalPos="239.77" arrivalSpeed="11.33" duration="434.00" routeLength="3375.93" waitingTime="93.00" waitingCount="6" stopTime="0.00" timeLoss="154.87" rerouteNo="0" devices="vehroute_23 tripinfo_23 fcd_23" vType="DEFAULT_VEHTYPE" speedFactor="0.89" vaporized=""/>
    <tripinfo id="24" depart="954.00" departLane="a16_0" departPos="5.10" departSpeed="0.00" departDelay="0.38" arrival="1367.00" arrivalLane="b3[1]b_0" arrivalPos="239.77" arrivalSpeed="10.93" duration="413.00" routeLength="3381.18" waitingTime="59.00" waitingCount="4" stopTime="0.00" timeLoss="111.40" rerouteNo="0" devices="vehroute_24 tripinfo_24 fcd_24" vType="DEFAULT_VEHTYPE" speedFactor="0.83" vaporized=""/>
    <tripinfo id="31" depart="1215.00" departLane="a161_0" departPos="5.10" departSpeed="0.00" departDelay="0.98" arrival="1450.00" arrivalLane="b21_1" arrivalPos="90.26" arrivalSpeed="15.94" duration="235.00" routeLength="2627.12" waitingTime="43.00" waitingCount="1" stopTime="0.00" timeLoss="68.91" rerouteNo="0" devices="vehroute_31 tripinfo_31 fcd_31" vType="DEFAULT_VEHTYPE" speedFactor="1.15" vaporized=""/>
    <tripinfo id="26" depart="989.00" departLane="a16_0" departPos="5.10" departSpeed="0.00" departDelay="0.66" arrival="1498.00" arrivalLane="b3[1]b_0" arrivalPos="239.77" arrivalSpeed="12.30" duration="509.00" routeLength="3375.93" waitingTime="170.00" waitingCount="6" stopTime="0.00" timeLoss="238.52" rerouteNo="0" devices="vehroute_26 tripinfo_26 fcd_26" vType="DEFAULT_VEHTYPE" speedFactor="0.92" vaporized=""/>
    <tripinfo id="28" depart="1084.00" departLane="a16_0" departPos="5.10" departSpeed="0.00" departDelay="0.93" arrival="1499.00" arrivalLane="b3[1]b_1" arrivalPos="239.77" arrivalSpeed="15.69" duration="415.00" routeLength="3375.93" waitingTime="94.00" waitingCount="6" stopTime="0.00" timeLoss="195.53" rerouteNo="0" devices="vehroute_28 tripinfo_28 fcd_28" vType="DEFAULT_VEHTYPE" speedFactor="1.13" vaporized=""/>
    <tripinfo id="25" depart="977.00" departLane="a16_0" departPos="5.10" departSpeed="0.00" departDelay="0.87" arrival="1500.00" arrivalLane="b3[1]b_0" arrivalPos="239.77" arrivalSpeed="11.87" duration="523.00" routeLength="3381.18" waitingTime="178.00" waitingCount="6" stopTime="0.00" timeLoss="238.82" rerouteNo="0" devices="vehroute_25 tripinfo_25 fcd_25" vType="DEFAULT_VEHTYPE" speedFactor="0.87" vaporized=""/>
    <tripinfo id="27" depart="1007.00" departLane="a16_0" departPos="5.10" departSpeed="0.00" departDelay="0.07" arrival="1501.00" arrivalLane="b3[1]b_1" arrivalPos="239.77" arrivalSpeed="13.00" duration="494.00" routeLength="3381.18" waitingTime="151.00" waitingCount="6" stopTime="0.00" timeLoss="231.63" rerouteNo="0" devices="vehroute_27 tripinfo_27 fcd_27" vType="DEFAULT_VEHTYPE" speedFactor="0.95" vaporized=""/>
    <tripinfo id="30" depart="1201.00" departLane="a16_0" departPos="5.10" departSpeed="0.00" departDelay="0.15" arrival="1617.00" arrivalLane="b3[1]b_0" arrivalPos="239.77" arrivalSpeed="15.85" duration="416.00" routeLength="3381.18" waitingTime="110.00" waitingCount="7" stopTime="0.00" timeLoss="205.14" rerouteNo="0" devices="vehroute_30 tripinfo_30 fcd_30" vType="DEFAULT_VEHTYPE" speedFactor="1.18" vaporized=""/>
    <tripinfo id="35" depart="1247.00" departLane="a16_0" departPos="5.10" departSpeed="0.00" departDelay="0.24" arrival="1623.00" arrivalLane="b3[1]b_1" arrivalPos="239.77" arrivalSpeed="14.06" duration="376.00" routeLength="3375.93" waitingTime="47.00" waitingCount="4" stopTime="0.00" timeLoss="131.97" rerouteNo="0" devices="vehroute_35 tripinfo_35 fcd_35" vType="DEFAULT_VEHTYPE" speedFactor="1.02" vaporized=""/>
    <tripinfo id="29" depart="1162.00" departLane="a16_0" departPos="5.10" departSpeed="0.00" departDelay="0.90" arrival="1624.00" arrivalLane="b3[1]b_0" arrivalPos="239.77" arrivalSpeed="12.29" duration="462.00" routeLength="3375.93" waitingTime="131.00" waitingCount="7" stopTime="0.00" timeLoss="194.69" rerouteNo="0" devices="vehroute_29 tripinfo_29 fcd_29" vType="DEFAULT_VEHTYPE" speedFactor="0.93" vaporized=""/>
    <tripinfo id="33" depart="1231.00" departLane="a16_0" departPos="5.10" departSpeed="0.00" departDelay="0.97" arrival="1624.00" arrivalLane="b3[1]b_1" arrivalPos="239.77" arrivalSpeed="16.08" duration="393.00" routeLength="3375.93" waitingTime="62.00" waitingCount="6" stopTime="0.00" timeLoss="180.68" rerouteNo="0" devices="vehroute_33 tripinfo_33 fcd_33" vType="DEFAULT_VEHTYPE" speedFactor="1.17" vaporized=""/>
    <tripinfo id="32" depart="1228.00" departLane="a16_0" departPos="5.10" departSpeed="0.00" departDelay="0.08" arrival="1626.00" arrivalLane="b3[1]b_0" arrivalPos="239.77" arrivalSpeed="13.02" duration="398.00" routeLength="3381.18" waitingTime="68.00" waitingCount="6" stopTime="0.00" timeLoss="150.38" rerouteNo="0" devices="vehroute_32 tripinfo_32 fcd_32" vType="DEFAULT_VEHTYPE" speedFactor="1.01" vaporized=""/>
    <tripinfo id="34" depart="1237.00" departLane="a16_0" departPos="5.10" departSpeed="0.00" departDelay="0.18" arrival="1627.00" arrivalLane="b3[1]b_1" arrivalPos="239.77" arrivalSpeed="13.65" duration="390.00" routeLength="3381.18" waitingTime="56.00" waitingCount="4" stopTime="0.00" timeLoss="140.00" rerouteNo="0" devices="vehroute_34 tripinfo_34 fcd_34" vType="DEFAULT_VEHTYPE" speedFactor="0.99" vaporized=""/>
    <tripinfo id="37" depart="1322.00" departLane="a16_0" departPos="5.10" departSpeed="0.00" departDelay="0.96" arrival="1748.00" arrivalLane="b3[1]b_0" arrivalPos="239.77" arrivalSpeed="15.21" duration="426.00" routeLength="3381.18" waitingTime="131.00" waitingCount="7" stopTime="0.00" timeLoss="215.02" rerouteNo="0" devices="vehroute_37 tripinfo_37 fcd_37" vType="DEFAULT_VEHTYPE" speedFactor="1.18" vaporized=""/>
    <tripinfo id="36" depart="1307.00" departLane="a16_0" departPos="5.10" departSpeed="0.00" departDelay="0.40" arrival="1753.00" arrivalLane="b3[1]b_0" arrivalPos="239.77" arrivalSpeed="12.92" duration="446.00" routeLength="3375.93" waitingTime="128.00" waitingCount="7" stopTime="0.00" timeLoss="191.19" rerouteNo="0" devices="vehroute_36 tripinfo_36 fcd_36" vType="DEFAULT_VEHTYPE" speedFactor="0.97" vaporized=""/>
    <tripinfo id="38" depart="1363.00" departLane="a16_0" departPos="5.10" departSpeed="0.00" departDelay="0.48" arrival="1801.00" arrivalLane="b3[1]b_0" arrivalPos="239.77" arrivalSpeed="15.29" duration="438.00" routeLength="3381.18" waitingTime="154.00" waitingCount="5" stopTime="0.00" timeLoss="212.73" rerouteNo="0" devices="vehroute_38 tripinfo_38 fcd_38" vType="DEFAULT_VEHTYPE" speedFactor="1.10" vaporized=""/>
    <tripinfo id="43" depart="1445.00" departLane="a16_0" departPos="5.10" departSpeed="0.00" departDelay="0.72" arrival="1887.00" arrivalLane="b3[1]b_1" arrivalPos="239.77" arrivalSpeed="13.84" duration="442.00" routeLength="3375.93" waitingTime="121.00" waitingCount="7" stopTime="0.00" timeLoss="202.49" rerouteNo="0" devices="vehroute_43 tripinfo_43 fcd_43" vType="DEFAULT_VEHTYPE" speedFactor="1.04" vaporized=""/>
    <tripinfo id="40" depart="1378.00" departLane="a16_0" departPos="5.10" departSpeed="0.00" departDelay="0.91" arrival="1888.00" arrivalLane="b3[1]b_0" arrivalPos="239.77" arrivalSpeed="13.45" duration="510.00" routeLength="3381.18" waitingTime="182.00" waitingCount="7" stopTime="0.00" timeLoss="267.97" rerouteNo="0" devices="vehroute_40 tripinfo_40 fcd_40" vType="DEFAULT_VEHTYPE" speedFactor="1.03" vaporized=""/>
    <tripinfo id="44" depart="1475.00" departLane="a16_0" departPos="5.10" departSpeed="0.00" departDelay="0.88" arrival="1889.00" arrivalLane="b3[1]b_1" arrivalPos="239.77" arrivalSpeed="13.27" duration="414.00" routeLength="3375.93" waitingTime="86.00" waitingCount="5" stopTime="0.00" timeLoss="174.88" rerouteNo="0" devices="vehroute_44 tripinfo_44 fcd_44" vType="DEFAULT_VEHTYPE" speedFactor="1.04" vaporized=""/>
    <tripinfo id="39" depart="1372.00" departLane="a16_0" departPos="5.10" departSpeed="0.00" departDelay="0.73" arrival="1894.00" arrivalLane="b3[1]b_0" arrivalPos="239.77" arrivalSpeed="12.23" duration="522.00" routeLength="3381.18" waitingTime="179.00" waitingCount="7" stopTime="0.00" timeLoss="245.22" rerouteNo="0" devices="vehroute_39 tripinfo_39 fcd_39" vType="DEFAULT_VEHTYPE" speedFactor="0.90" vaporized=""/>
    <tripinfo id="41" depart="1408.00" departLane="a16_0" departPos="5.10" departSpeed="0.00" departDelay="0.25" arrival="1894.00" arrivalLane="b3[1]b_1" arrivalPos="239.77" arrivalSpeed="13.10" duration="486.00" routeLength="3375.93" waitingTime="140.00" waitingCount="7" stopTime="0.00" timeLoss="227.07" rerouteNo="0" devices="vehroute_41 tripinfo_41 fcd_41" vType="DEFAULT_VEHTYPE" speedFactor="0.96" vaporized=""/>
    <tripinfo id="42" depart="1430.00" departLane="a16_0" departPos="5.10" departSpeed="0.00" departDelay="0.16" arrival="1896.00" arrivalLane="b3[1]b_0" arrivalPos="239.77" arrivalSpeed="14.82" duration="466.00" routeLength="3381.18" waitingTime="131.00" waitingCount="5" stopTime="0.00" timeLoss="237.09" rerouteNo="0" devices="vehroute_42 tripinfo_42 fcd_42" vType="DEFAULT_VEHTYPE" speedFactor="1.09" vaporized=""/>
    <tripinfo id="45" depart="1522.00" departLane="a16_0" departPos="5.10" departSpeed="0.00" departDelay="0.32" arrival="1896.00" arrivalLane="b3[1]b_1" arrivalPos="239.77" arrivalSpeed="14.52" duration="374.00" routeLength="3381.18" waitingTime="47.00" waitingCount="4" stopTime="0.00" timeLoss="145.55" rerouteNo="0" devices="vehroute_45 tripinfo_45 fcd_45" vType="DEFAULT_VEHTYPE" speedFactor="1.09" vaporized=""/>
    <tripinfo id="46" depart="1593.00" departLane="a16_0" departPos="5.10" departSpeed="0.00" departDelay="0.32" arrival="1938.00" arrivalLane="b3[1]b_0" arrivalPos="239.77" arrivalSpeed="13.82" duration="345.00" routeLength="3381.18" waitingTime="48.00" waitingCount="4" stopTime="0.00" timeLoss="97.06" rerouteNo="0" devices="vehroute_46 tripinfo_46 fcd_46" vType="DEFAULT_VEHTYPE" speedFactor="1.00" vaporized=""/>
    <tripinfo id="47" depart="1596.00" departLane="a16_0" departPos="5.10" departSpeed="0.00" departDelay="2.22" arrival="2030.00" arrivalLane="b3[1]b_0" arrivalPos="239.77" arrivalSpeed="12.47" duration="434.00" routeLength="3381.18" waitingTime="102.00" waitingCount="5" stopTime="0.00" timeLoss="157.40" rerouteNo="0" devices="vehroute_47 tripinfo_47 fcd_47" vType="DEFAULT_VEHTYPE" speedFactor="0.90" vaporized=""/>
    <tripinfo id="48" depart="1605.00" departLane="a16_0" departPos="5.10" departSpeed="0.00" departDelay="0.15" arrival="2074.00" arrivalLane="b3[1]b_0" arrivalPos="239.77" arrivalSpeed="10.92" duration="469.00" routeLength="3381.18" waitingTime="128.00" waitingCount="3" stopTime="0.00" timeLoss="184.69" rerouteNo="0" devices="vehroute_48 tripinfo_48 fcd_48" vType="DEFAULT_VEHTYPE" speedFactor="0.88" vaporized=""/>
    <tripinfo id="51" depart="1710.00" departLane="a16_0" departPos="5.10" departSpeed="0.00" departDelay="0.41" arrival="2148.00" arrivalLane="b3[1]b_0" arrivalPos="239.77" arrivalSpeed="16.13" duration="438.00" routeLength="3381.18" waitingTime="128.00" waitingCount="6" stopTime="0.00" timeLoss="225.95" rerouteNo="0" devices="vehroute_51 tripinfo_51 fcd_51" vType="DEFAULT_VEHTYPE" speedFactor="1.17" vaporized=""/>
    <tripinfo id="50" depart="1645.00" departLane="a16_0" departPos="5.10" departSpeed="0.00" departDelay="0.31" arrival="2158.00" arrivalLane="b3[1]b_0" arrivalPos="239.77" arrivalSpeed="11.78" duration="513.00" routeLength="3375.93" waitingTime="155.00" waitingCount="7" stopTime="0.00" timeLoss="222.80" rerouteNo="0" devices="vehroute_50 tripinfo_50 fcd_50" vType="DEFAULT_VEHTYPE" speedFactor="0.85" vaporized=""/>
    <tripinfo id="49" depart="1608.00" departLane="a16_0" departPos="5.10" departSpeed="0.00" departDelay="1.13" arrival="2161.00" arrivalLane="b3[1]b_0" arrivalPos="239.77" arrivalSpeed="11.54" duration="553.00" routeLength="3381.18" waitingTime="194.00" waitingCount="6" stopTime="0.00" timeLoss="260.86" rerouteNo="0" devices="vehroute_49 tripinfo_49 fcd_49" vType="DEFAULT_VEHTYPE" speedFactor="0.85" vaporized=""/>
    <tripinfo id="53" depart="1825.00" departLane="a16_0" departPos="5.10" departSpeed="0.00" departDelay="0.38" arrival="2172.00" arrivalLane="b3[1]b_0" arrivalPos="239.77" arrivalSpeed="14.79" duration="347.00" routeLength="3381.18" waitingTime="63.00" waitingCount="3" stopTime="0.00" timeLoss="120.62" rerouteNo="0" devices="vehroute_53 tripinfo_53 fcd_53" vType="DEFAULT_VEHTYPE" speedFactor="1.10" vaporized=""/>
    <tripinfo id="52" depart="1805.00" departLane="a16_0" departPos="5.10" departSpeed="0.00" departDelay="0.85" arrival="2178.00" arrivalLane="b3[1]b_0" arrivalPos="239.77" arrivalSpeed="13.30" duration="373.00" routeLength="3381.18" waitingTime="75.00" waitingCount="5" stopTime="0.00" timeLoss="128.19" rerouteNo="0" devices="vehroute_52 tripinfo_52 fcd_52" vType="DEFAULT_VEHTYPE" speedFactor="1.02" vaporized=""/>
    <tripinfo id="54" depart="1836.00" departLane="a16_0" departPos="5.10" departSpeed="0.00" departDelay="0.99" arrival="2209.00" arrivalLane="b3[1]b_0" arrivalPos="239.77" arrivalSpeed="13.84" duration="373.00" routeLength="3381.18" waitingTime="73.00" waitingCount="3" stopTime="0.00" timeLoss="125.30" rerouteNo="0" devices="vehroute_54 tripinfo_54 fcd_54" vType="DEFAULT_VEHTYPE" speedFactor="1.00" vaporized=""/>
    <tripinfo id="61" depart="2090.00" departLane="a161_0" departPos="5.10" departSpeed="0.00" departDelay="0.29" arrival="2313.00" arrivalLane="b21_1" arrivalPos="90.26" arrivalSpeed="14.49" duration="223.00" routeLength="2627.12" waitingTime="19.00" waitingCount="2" stopTime="0.00" timeLoss="51.36" rerouteNo="0" devices="vehroute_61 tripinfo_61 fcd_61" vType="DEFAULT_VEHTYPE" speedFactor="1.12" vaporized=""/>
    <tripinfo id="55" depart="1917.00" departLane="a16_0" departPos="5.10" departSpeed="0.00" departDelay="0.07" arrival="2339.00" arrivalLane="b3[1]b_0" arrivalPos="239.77" arrivalSpeed="12.83" duration="422.00" routeLength="3381.18" waitingTime="111.00" waitingCount="6" stopTime="0.00" timeLoss="173.11" rerouteNo="0" devices="vehroute_55 tripinfo_55 fcd_55" vType="DEFAULT_VEHTYPE" speedFactor="1.00" vaporized=""/>
    <tripinfo id="56" depart="1944.00" departLane="a16_0" departPos="5.10" departSpeed="0.00" departDelay="0.96" arrival="2344.00" arrivalLane="b3[1]b_0" arrivalPos="239.77" arrivalSpeed="11.87" duration="400.00" routeLength="3375.93" waitingTime="75.00" waitingCount="3" stopTime="0.00" timeLoss="123.30" rerouteNo="0" devices="vehroute_56 tripinfo_56 fcd_56" vType="DEFAULT_VEHTYPE" speedFactor="0.90" vaporized=""/>
    <tripinfo id="57" depart="2040.00" departLane="a16_0" departPos="5.10" departSpeed="0.00" departDelay="0.33" arrival="2461.00" arrivalLane="b3[1]b_0" arrivalPos="239.77" arrivalSpeed="15.66" duration="421.00" routeLength="3381.18" waitingTime="139.00" waitingCount="6" stopTime="0.00" timeLoss="203.79" rerouteNo="0" devices="vehroute_57 tripinfo_57 fcd_57" vType="DEFAULT_VEHTYPE" speedFactor="1.14" vaporized=""/>
    <tripinfo id="58" depart="2063.00" departLane="a16_0" departPos="5.10" departSpeed="0.00" departDelay="0.05" arrival="2464.00" arrivalLane="b3[1]b_1" arrivalPos="239.77" arrivalSpeed="12.98" duration="401.00" routeLength="3375.93" waitingTime="105.00" waitingCount="3" stopTime="0.00" timeLoss="157.80" rerouteNo="0" devices="vehroute_58 tripinfo_58 fcd_58" vType="DEFAULT_VEHTYPE" speedFactor="1.02" vaporized=""/>
    <tripinfo id="59" depart="2069.00" departLane="a16_0" departPos="5.10" departSpeed="0.00" departDelay="0.49" arrival="2468.00" arrivalLane="b3[1]b_0" arrivalPos="239.77" arrivalSpeed="12.87" duration="399.00" routeLength="3381.18" waitingTime="94.00" waitingCount="4" stopTime="0.00" timeLoss="142.32" rerouteNo="0" devices="vehroute_59 tripinfo_59 fcd_59" vType="DEFAULT_VEHTYPE" speedFactor="0.97" vaporized=""/>
    <tripinfo id="60" depart="2072.00" departLane="a16_0" departPos="5.10" departSpeed="0.00" departDelay="1.41" arrival="2588.00" arrivalLane="b3[1]b_0" arrivalPos="239.77" arrivalSpeed="14.16" duration="516.00" routeLength="3381.18" waitingTime="212.00" waitingCount="7" stopTime="0.00" timeLoss="286.80" rerouteNo="0" devices="vehroute_60 tripinfo_60 fcd_60" vType="DEFAULT_VEHTYPE" speedFactor="1.08" vaporized=""/>
    <tripinfo id="62" depart="2135.00" departLane="a16_0" departPos="5.10" departSpeed="0.00" departDelay="0.88" arrival="2590.00" arrivalLane="b3[1]b_0" arrivalPos="239.77" arrivalSpeed="13.09" duration="455.00" routeLength="3375.93" waitingTime="140.00" waitingCount="6" stopTime="0.00" timeLoss="210.22" rerouteNo="0" devices="vehroute_62 tripinfo_62 fcd_62" vType="DEFAULT_VEHTYPE" speedFactor="1.02" vaporized=""/>
    <tripinfo id="63" depart="2145.00" departLane="a16_0" departPos="5.10" departSpeed="0.00" departDelay="0.30" arrival="2593.00" arrivalLane="b3[1]b_0" arrivalPos="239.77" arrivalSpeed="13.24" duration="448.00" routeLength="3381.18" waitingTime="126.00" waitingCount="5" stopTime="0.00" timeLoss="195.28" rerouteNo="0" devices="vehroute_63 tripinfo_63 fcd_63" vType="DEFAULT_VEHTYPE" speedFactor="0.99" vaporized=""/>
    <tripinfo id="64" depart="2150.00" departLane="a16_0" departPos="5.10" departSpeed="0.00" departDelay="0.63" arrival="2595.00" arrivalLane="b3[1]b_0" arrivalPos="239.77" arrivalSpeed="12.29" duration="445.00" routeLength="3375.93" waitingTime="117.00" waitingCount="4" stopTime="0.00" timeLoss="180.42" rerouteNo="0" devices="vehroute_64 tripinfo_64 fcd_64" vType="DEFAULT_VEHTYPE" speedFactor="0.94" vaporized=""/>
    <tripinfo id="68" depart="2261.00" departLane="a16_0" departPos="5.10" departSpeed="0.00" departDelay="0.38" arrival="2726.00" arrivalLane="b3[1]b_0" arrivalPos="239.77" arrivalSpeed="13.85" duration="465.00" routeLength="3375.93" waitingTime="147.00" waitingCount="6" stopTime="0.00" timeLoss="226.65" rerouteNo="0" devices="vehroute_68 tripinfo_68 fcd_68" vType="DEFAULT_VEHTYPE" speedFactor="1.04" vaporized=""/>
    <tripinfo id="69" depart="2286.00" departLane="a16_0" departPos="5.10" departSpeed="0.00" departDelay="0.14" arrival="2729.00" arrivalLane="b3[1]b_1" arrivalPos="239.77" arrivalSpeed="12.96" duration="443.00" routeLength="3375.93" waitingTime="113.00" waitingCount="5" stopTime="0.00" timeLoss="198.93" rerouteNo="0" devices="vehroute_69 tripinfo_69 fcd_69" vType="DEFAULT_VEHTYPE" speedFactor="1.02" vaporized=""/>