<?xml version="1.0" encoding="UTF-8"?>

<!-- generated on 2025-03-21 18:06:35 by Eclipse SUMO sumo Version 1.21.0
<sumoConfiguration xmlns:xsi="http://www.w3.org/2001/XMLSchema-instance" xsi:noNamespaceSchemaLocation="http://sumo.dlr.de/xsd/sumoConfiguration.xsd">

    <input>
        <net-file value="${STATICPATH}/joined_lanes.net.xml"/>
        <route-files value="${SIMULATIONPATH}/generatedRoutes.rou.xml"/>
        <additional-files value="${STATICPATH}/detectors.add.xml,${STATICPATH}/joined_vtypes.add.xml,${STATICPATH}/joined_tls.add.xml"/>
    </input>

    <output>
        <fcd-output value="${SIMULATIONPATH}/fcd.xml"/>
        <queue-output value="${SIMULATIONPATH}/queue.xml"/>
        <summary-output value="${SIMULATIONPATH}/summary.xml"/>
        <tripinfo-output value="${SIMULATIONPATH}/tripinfos.xml"/>
        <vehroute-output value="${SIMULATIONPATH}/vehroute.xml"/>
        <save-state.prefix value="configs\state"/>
    </output>

    <processing>
        <ignore-junction-blocker value="1"/>
        <ignore-route-errors value="true"/>
        <time-to-teleport value="-1"/>
    </processing>

    <report>
        <log value="C:/Users/fabio/Desktop/sumo_log.txt"/>
        <no-step-log value="true"/>
    </report>

    <emissions>
        <phemlight-path value="configs\./PHEMlight/"/>
    </emissions>

    <traci_server>
        <remote-port value="60301"/>
    </traci_server>

</sumoConfiguration>
-->

<routes xmlns:xsi="http://www.w3.org/2001/XMLSchema-instance" xsi:noNamespaceSchemaLocation="http://sumo.dlr.de/xsd/routes_file.xsd">
    <vehicle id="0" depart="5.00" arrival="348.00">
        <route edges="a16 a37 a36 a40 a153 a87[0] a20001+87[1][0] a87[1][1] am90 am91 a88 a187 a191 a17 a71 b38[0] b38[0]a b38[1][0] b38[1][1] b38[1][1]a b56[1][0] b56[1][1] b5[1][0]+66 b5[1][1][1] b8 b3[1] b3[1]b"/>
    </vehicle>

    <vehicle id="3" depart="83.00" arrival="489.00">
        <route edges="a16 a37 a36 a40 a153 a87[0] a20001+87[1][0] a87[1][1] am90 am91 a88 a187 a191 a17 a71 b38[0] b38[0]a b38[1][0] b38[1][1] b38[1][1]a b56[1][0] b56[1][1] b5[1][0]+66 b5[1][1][1] b8 b3[1] b3[1]b"/>
    </vehicle>

    <vehicle id="2" depart="73.00" arrival="491.00">
        <route edges="a16 a37 a36 a40 a153 a87[0] a20001+87[1][0] a87[1][1] am90 am91 a88 a187 a191 a17 a71 b38[0] b38[0]a b38[1][0] b38[1][1] b38[1][1]a b56[1][0] b56[1][1] b5[1][0]+66 b5[1][1][1] b8 b3[1] b3[1]b"/>
    </vehicle>

    <vehicle id="1" depart="57.00" arrival="496.00">
        <route edges="a16 a37 a36 a40 a153 a87[0] a20001+87[1][0] a87[1][1] am90 am91 a88 a187 a191 a17 a71 b38[0] b38[0]a b38[1][0] b38[1][1] b38[1][1]a b56[1][0] b56[1][1] b5[1][0]+66 b5[1][1][1] b8 b3[1] b3[1]b"/>
    </vehicle>

    <vehicle id="4" depart="189.00" arrival="653.00">
        <route edges="a16 a37 a36 a40 a153 a87[0] a20001+87[1][0] a87[1][1] am90 am91 a88 a187 a191 a17 a71 b38[0] b38[0]a b38[1][0] b38[1][1] b38[1][1]a b56[1][0] b56[1][1] b5[1][0]+66 b5[1][1][1] b8 b3[1] b3[1]b"/>
    </vehicle>

    <vehicle id="6" depart="252.00" arrival="784.00">
        <route edges="a16 a37 a36 a40 a153 a87[0] a20001+87[1][0] a87[1][1] am90 am91 a88 a187 a191 a17 a71 b38[0] b38[0]a b38[1][0] b38[1][1] b38[1][1]a b56[1][0] b56[1][1] b5[1][0]+66 b5[1][1][1] b8 b3[1] b3[1]b"/>
    </vehicle>

    <vehicle id="5" depart="228.00" arrival="792.00">
        <route edges="a16 a37 a36 a40 a153 a87[0] a20001+87[1][0] a87[1][1] am90 am91 a88 a187 a191 a17 a71 b38[0] b38[0]a b38[1][0] b38[1][1] b38[1][1]a b56[1][0] b56[1][1] b5[1][0]+66 b5[1][1][1] b8 b3[1] b3[1]b"/>
    </vehicle>

    <vehicle id="7" depart="320.00" arrival="843.00">
        <route edges="a16 a37 a36 a40 a153 a87[0] a20001+87[1][0] a87[1][1] am90 am91 a88 a187 a191 a17 a71 b38[0] b38[0]a b38[1][0] b38[1][1] b38[1][1]a b56[1][0] b56[1][1] b5[1][0]+66 b5[1][1][1] b8 b3[1] b3[1]b"/>
    </vehicle>

    <vehicle id="10" depart="432.00" arrival="919.00">
        <route edges="a16 a37 a36 a40 a153 a87[0] a20001+87[1][0] a87[1][1] am90 am91 a88 a187 a191 a17 a71 b38[0] b38[0]a b38[1][0] b38[1][1] b38[1][1]a b56[1][0] b56[1][1] b5[1][0]+66 b5[1][1][1] b8 b3[1] b3[1]b"/>
    </vehicle>

    <vehicle id="8" depart="335.00" arrival="924.00">
        <route edges="a16 a37 a36 a40 a153 a87[0] a20001+87[1][0] a87[1][1] am90 am91 a88 a187 a191 a17 a71 b38[0] b38[0]a b38[1][0] b38[1][1] b38[1][1]a b56[1][0] b56[1][1] b5[1][0]+66 b5[1][1][1] b8 b3[1] b3[1]b"/>
    </vehicle>

    <vehicle id="9" depart="424.00" arrival="929.00">
        <route edges="a16 a37 a36 a40 a153 a87[0] a20001+87[1][0] a87[1][1] am90 am91 a88 a187 a191 a17 a71 b38[0] b38[0]a b38[1][0] b38[1][1] b38[1][1]a b56[1][0] b56[1][1] b5[1][0]+66 b5[1][1][1] b8 b3[1] b3[1]b"/>
    </vehicle>

    <vehicle id="11" depart="509.00" arrival="947.00">
        <route edges="a16 a37 a36 a40 a153 a87[0] a20001+87[1][0] a87[1][1] am90 am91 a88 a187 a191 a17 a71 b38[0] b38[0]a b38[1][0] b38[1][1] b38[1][1]a b56[1][0] b56[1][1] b5[1][0]+66 b5[1][1][1] b8 b3[1] b3[1]b"/>
    </vehicle>

    <vehicle id="12" depart="554.00" arrival="947.00">
        <route edges="a16 a37 a36 a40 a153 a87[0] a20001+87[1][0] a87[1][1] am90 am91 a88 a187 a191 a17 a71 b38[0] b38[0]a b38[1][0] b38[1][1] b38[1][1]a b56[1][0] b56[1][1] b5[1][0]+66 b5[1][1][1] b8 b3[1] b3[1]b"/>
    </vehicle>

    <vehicle id="13" depart="574.00" arrival="948.00">
        <route edges="a16 a37 a36 a40 a153 a87[0] a20001+87[1][0] a87[1][1] am90 am91 a88 a187 a191 a17 a71 b38[0] b38[0]a b38[1][0] b38[1][1] b38[1][1]a b56[1][0] b56[1][1] b5[1][0]+66 b5[1][1][1] b8 b3[1] b3[1]b"/>
    </vehicle>

    <vehicle id="14" depart="583.00" arrival="1052.00">
        <route edges="a16 a37 a36 a40 a153 a87[0] a20001+87[1][0] a87[1][1] am90 am91 a88 a187 a191 a17 a71 b38[0] b38[0]a b38[1][0] b38[1][1] b38[1][1]a b56[1][0] b56[1][1] b5[1][0]+66 b5[1][1][1] b8 b3[1] b3[1]b"/>
    </vehicle>

    <vehicle id="15" depart="614.00" arrival="1082.00">
        <route edges="a16 a37 a36 a40 a153 a87[0] a20001+87[1][0] a87[1][1] am90 am91 a88 a187 a191 a17 a71 b38[0] b38[0]a b38[1][0] b38[1][1] b38[1][1]a b56[1][0] b56[1][1] b5[1][0]+66 b5[1][1][1] b8 b3[1] b3[1]b"/>
    </vehicle>

    <vehicle id="17" depart="764.00" arrival="1109.00">
        <route edges="a16 a37 a36 a40 a153 a87[0] a20001+87[1][0] a87[1][1] am90 am91 a88 a187 a191 a17 a71 b38[0] b38[0]a b38[1][0] b38[1][1] b38[1][1]a b56[1][0] b56[1][1] b5[1][0]+66 b5[1][1][1] b8 b3[1] b3[1]b"/>
    </vehicle>

    <vehicle id="16" depart="686.00" arrival="1116.00">
        <route edges="a16 a37 a36 a40 a153 a87[0] a20001+87[1][0] a87[1][1] am90 am91 a88 a187 a191 a17 a71 b38[0] b38[0]a b38[1][0] b38[1][1] b38[1][1]a b56[1][0] b56[1][1] b5[1][0]+66 b5[1][1][1] b8 b3[1] b3[1]b"/>
    </vehicle>

    <vehicle id="19" depart="819.00" arrival="1223.00">
        <route edges="a16 a37 a36 a40 a153 a87[0] a20001+87[1][0] a87[1][1] am90 am91 a88 a187 a191 a17 a71 b38[0] b38[0]a b38[1][0] b38[1][1] b38[1][1]a b56[1][0] b56[1][1] b5[1][0]+66 b5[1][1][1] b8 b3[1] b3[1]b"/>
    </vehicle>

    <vehicle id="21" depart="861.00" arrival="1229.00">
        <route edges="a16 a37 a36 a40 a153 a87[0] a20001+87[1][0] a87[1][1] am90 am91 a88 a187 a191 a17 a71 b38[0] b38[0]a b38[1][0] b38[1][1] b38[1][1]a b56[1][0] b56[1][1] b5[1][0]+66 b5[1][1][1] b8 b3[1] b3[1]b"/>
    </vehicle>

    <vehicle id="18" depart="806.00" arrival="1230.00">
        <route edges="a16 a37 a36 a40 a153 a87[0] a20001+87[1][0] a87[1][1] am90 am91 a88 a187 a191 a17 a71 b38[0] b38[0]a b38[1][0] b38[1][1] b38[1][1]a b56[1][0] b56[1][1] b5[1][0]+66 b5[1][1][1] b8 b3[1] b3[1]b"/>
    </vehicle>

    <vehicle id="20" depart="831.00" arrival="1231.00">
        <route edges="a16 a37 a36 a40 a153 a87[0] a20001+87[1][0] a87[1][1] am90 am91 a88 a187 a191 a17 a71 b38[0] b38[0]a b38[1][0] b38[1][1] b38[1][1]a b56[1][0] b56[1][1] b5[1][0]+66 b5[1][1][1] b8 b3[1] b3[1]b"/>
    </vehicle>

    <vehicle id="22" depart="878.00" arrival="1356.00">
        <route edges="a16 a37 a36 a40 a153 a87[0] a20001+87[1][0] a87[1][1] am90 am91 a88 a187 a191 a17 a71 b38[0] b38[0]a b38[1][0] b38[1][1] b38[1][1]a b56[1][0] b56[1][1] b5[1][0]+66 b5[1][1][1] b8 b3[1] b3[1]b"/>
    </vehicle>

    <vehicle id="23" depart="926.00" arrival="1360.00">
        <route edges="a16 a37 a36 a40 a153 a87[0] a20001+87[1][0] a87[1][1] am90 am91 a88 a187 a191 a17 a71 b38[0] b38[0]a b38[1][0] b38[1][1] b38[1][1]a b56[1][0] b56[1][1] b5[1][0]+66 b5[1][1][1] b8 b3[1] b3[1]b"/>
    </vehicle>

    <vehicle id="24" depart="954.00" arrival="1367.00">
        <route edges="a16 a37 a36 a40 a153 a87[0] a20001+87[1][0] a87[1][1] am90 am91 a88 a187 a191 a17 a71 b38[0] b38[0]a b38[1][0] b38[1][1] b38[1][1]a b56[1][0] b56[1][1] b5[1][0]+66 b5[1][1][1] b8 b3[1] b3[1]b"/>
    </vehicle>

    <vehicle id="31" depart="1215.00" arrival="1450.00">
        <route edges="a161 a122 a1b a1 a204a[0] a124 b12 b50[0] b50[1] b50[1]a a181 a18 a17 a71 b2[0] b2[1][0] b2[1][1][0] b21"/>
    </vehicle>

    <vehicle id="26" depart="989.00" arrival="1498.00">
        <route edges="a16 a37 a36 a40 a153 a87[0] a20001+87[1][0] a87[1][1] am90 am91 a88 a187 a191 a17 a71 b38[0] b38[0]a b38[1][0] b38[1][1] b38[1][1]a b56[1][0] b56[1][1] b5[1][0]+66 b5[1][1][1] b8 b3[1] b3[1]b"/>
    </vehicle>

    <vehicle id="28" depart="1084.00" arrival="1499.00">
        <route edges="a16 a37 a36 a40 a153 a87[0] a20001+87[1][0] a87[1][1] am90 am91 a88 a187 a191 a17 a71 b38[0] b38[0]a b38[1][0] b38[1][1] b38[1][1]a b56[1][0] b56[1][1] b5[1][0]+66 b5[1][1][1] b8 b3[1] b3[1]b"/>
    </vehicle>

    <vehicle id="25" depart="977.00" arrival="1500.00">
        <route edges="a16 a37 a36 a40 a153 a87[0] a20001+87[1][0] a87[1][1] am90 am91 a88 a187 a191 a17 a71 b38[0] b38[0]a b38[1][0] b38[1][1] b38[1][1]a b56[1][0] b56[1][1] b5[1][0]+66 b5[1][1][1] b8 b3[1] b3[1]b"/>
    </vehicle>

    <vehicle id="27" depart="1007.00" arrival="1501.00">
        <route edges="a16 a37 a36 a40 a153 a87[0] a20001+87[1][0] a87[1][1] am90 am91 a88 a187 a191 a17 a71 b38[0] b38[0]a b38[1][0] b38[1][1] b38[1][1]a b56[1][0] b56[1][1] b5[1][0]+66 b5[1][1][1] b8 b3[1] b3[1]b"/>
    </vehicle>

    <vehicle id="30" depart="1201.00" arrival="1617.00">
        <route edges="a16 a37 a36 a40 a153 a87[0] a20001+87[1][0] a87[1][1] am90 am91 a88 a187 a191 a17 a71 b38[0] b38[0]a b38[1][0] b38[1][1] b38[1][1]a b56[1][0] b56[1][1] b5[1][0]+66 b5[1][1][1] b8 b3[1] b3[1]b"/>
    </vehicle>

    <vehicle id="35" depart="1247.00" arrival="1623.00">
        <route edges="a16 a37 a36 a40 a153 a87[0] a20001+87[1][0] a87[1][1] am90 am91 a88 a187 a191 a17 a71 b38[0] b38[0]a b38[1][0] b38[1][1] b38[1][1]a b56[1][0] b56[1][1] b5[1][0]+66 b5[1][1][1] b8 b3[1] b3[1]b"/>
    </vehicle>

    <vehicle id="29" depart="1162.00" arrival="1624.00">
        <route edges="a16 a37 a36 a40 a153 a87[0] a20001+87[1][0] a87[1][1] am90 am91 a88 a187 a191 a17 a71 b38[0] b38[0]a b38[1][0] b38[1][1] b38[1][1]a b56[1][0] b56[1][1] b5[1][0]+66 b5[1][1][1] b8 b3[1] b3[1]b"/>
    </vehicle>

    <vehicle id="33" depart="1231.00" arrival="1624.00">
        <route edges="a16 a37 a36 a40 a153 a87[0] a20001+87[1][0] a87[1][1] am90 am91 a88 a187 a191 a17 a71 b38[0] b38[0]a b38[1][0] b38[1][1] b38[1][1]a b56[1][0] b56[1][1] b5[1][0]+66 b5[1][1][1] b8 b3[1] b3[1]b"/>
    </vehicle>

    <vehicle id="32" depart="1228.00" arrival="1626.00">
        <route edges="a16 a37 a36 a40 a153 a87[0] a20001+87[1][0] a87[1][1] am90 am91 a88 a187 a191 a17 a71 b38[0] b38[0]a b38[1][0] b38[1][1] b38[1][1]a b56[1][0] b56[1][1] b5[1][0]+66 b5[1][1][1] b8 b3[1] b3[1]b"/>
    </vehicle>

    <vehicle id="34" depart="1237.00" arrival="1627.00">
        <route edges="a16 a37 a36 a40 a153 a87[0] a20001+87[1][0] a87[1][1] am90 am91 a88 a187 a191 a17 a71 b38[0] b38[0]a b38[1][0] b38[1][1] b38[1][1]a b56[1][0] b56[1][1] b5[1][0]+66 b5[1][1][1] b8 b3[1] b3[1]b"/>
    </vehicle>

    <vehicle id="37" depart="1322.00" arrival="1748.00">
        <route edges="a16 a37 a36 a40 a153 a87[0] a20001+87[1][0] a87[1][1] am90 am91 a88 a187 a191 a17 a71 b38[0] b38[0]a b38[1][0] b38[1][1] b38[1][1]a b56[1][0] b56[1][1] b5[1][0]+66 b5[1][1][1] b8 b3[1] b3[1]b"/>
    </vehicle>

    <vehicle id="36" depart="1307.00" arrival="1753.00">
        <route edges="a16 a37 a36 a40 a153 a87[0] a20001+87[1][0] a87[1][1] am90 am91 a88 a187 a191 a17 a71 b38[0] b38[0]a b38[1][0] b38[1][1] b38[1][1]a b56[1][0] b56[1][1] b5[1][0]+66 b5[1][1][1] b8 b3[1] b3[1]b"/>
    </vehicle>

    <vehicle id="38" depart="1363.00" arrival="1801.00">
        <route edges="a16 a37 a36 a40 a153 a87[0] a20001+87[1][0] a87[1][1] am90 am91 a88 a187 a191 a17 a71 b38[0] b38[0]a b38[1][0] b38[1][1] b38[1][1]a b56[1][0] b56[1][1] b5[1][0]+66 b5[1][1][1] b8 b3[1] b3[1]b"/>
    </vehicle>

    <vehicle id="43" depart="1445.00" arrival="1887.00">
        <route edges="a16 a37 a36 a40 a153 a87[0] a20001+87[1][0] a87[1][1] am90 am91 a88 a187 a191 a17 a71 b38[0] b38[0]a b38[1][0] b38[1][1] b38[1][1]a b56[1][0] b56[1][1] b5[1][0]+66 b5[1][1][1] b8 b3[1] b3[1]b"/>
    </vehicle>

    <vehicle id="40" depart="1378.00" arrival="1888.00">
        <route edges="a16 a37 a36 a40 a153 a87[0] a20001+87[1][0] a87[1][1] am90 am91 a88 a187 a191 a17 a71 b38[0] b38[0]a b38[1][0] b38[1][1] b38[1][1]a b56[1][0] b56[1][1] b5[1][0]+66 b5[1][1][1] b8 b3[1] b3[1]b"/>
    </vehicle>

    <vehicle id="44" depart="1475.00" arrival="1889.00">
        <route edges="a16 a37 a36 a40 a153 a87[0] a20001+87[1][0] a87[1][1] am90 am91 a88 a187 a191 a17 a71 b38[0] b38[0]a b38[1][0] b38[1][1] b38[1][1]a b56[1][0] b56[1][1] b5[1][0]+66 b5[1][1][1] b8 b3[1] b3[1]b"/>
    </vehicle>

    <vehicle id="39" depart="1372.00" arrival="1894.00">
        <route edges="a16 a37 a36 a40 a153 a87[0] a20001+87[1][0] a87[1][1] am90 am91 a88 a187 a191 a17 a71 b38[0] b38[0]a b38[1][0] b38[1][1] b38[1][1]a b56[1][0] b56[1][1] b5[1][0]+66 b5[1][1][1] b8 b3[1] b3[1]b"/>
    </vehicle>

    <vehicle id="41" depart="1408.00" arrival="1894.00">
        <route edges="a16 a37 a36 a40 a153 a87[0] a20001+87[1][0] a87[1][1] am90 am91 a88 a187 a191 a17 a71 b38[0] b38[0]a b38[1][0] b38[1][1] b38[1][1]a b56[1][0] b56[1][1] b5[1][0]+66 b5[1][1][1] b8 b3[1] b3[1]b"/>
    </vehicle>

    <vehicle id="42" depart="1430.00" arrival="1896.00">
        <route edges="a16 a37 a36 a40 a153 a87[0] a20001+87[1][0] a87[1][1] am90 am91 a88 a187 a191 a17 a71 b38[0] b38[0]a b38[1][0] b38[1][1] b38[1][1]a b56[1][0] b56[1][1] b5[1][0]+66 b5[1][1][1] b8 b3[1] b3[1]b"/>
    </vehicle>

    <vehicle id="45" depart="1522.00" arrival="1896.00">
        <route edges="a16 a37 a36 a40 a153 a87[0] a20001+87[1][0] a87[1][1] am90 am91 a88 a187 a191 a17 a71 b38[0] b38[0]a b38[1][0] b38[1][1] b38[1][1]a b56[1][0] b56[1][1] b5[1][0]+66 b5[1][1][1] b8 b3[1] b3[1]b"/>
    </vehicle>

    <vehicle id="46" depart="1593.00" arrival="1938.00">
        <route edges="a16 a37 a36 a40 a153 a87[0] a20001+87[1][0] a87[1][1] am90 am91 a88 a187 a191 a17 a71 b38[0] b38[0]a b38[1][0] b38[1][1] b38[1][1]a b56[1][0] b56[1][1] b5[1][0]+66 b5[1][1][1] b8 b3[1] b3[1]b"/>
    </vehicle>

    <vehicle id="47" depart="1596.00" arrival="2030.00">
        <route edges="a16 a37 a36 a40 a153 a87[0] a20001+87[1][0] a87[1][1] am90 am91 a88 a187 a191 a17 a71 b38[0] b38[0]a b38[1][0] b38[1][1] b38[1][1]a b56[1][0] b56[1][1] b5[1][0]+66 b5[1][1][1] b8 b3[1] b3[1]b"/>
    </vehicle>

    <vehicle id="48" depart="1605.00" arrival="2074.00">
        <route edges="a16 a37 a36 a40 a153 a87[0] a20001+87[1][0] a87[1][1] am90 am91 a88 a187 a191 a17 a71 b38[0] b38[0]a b38[1][0] b38[1][1] b38[1][1]a b56[1][0] b56[1][1] b5[1][0]+66 b5[1][1][1] b8 b3[1] b3[1]b"/>
    </vehicle>

    <vehicle id="51" depart="1710.00" arrival="2148.00">
        <route edges="a16 a37 a36 a40 a153 a87[0] a20001+87[1][0] a87[1][1] am90 am91 a88 a187 a191 a17 a71 b38[0] b38[0]a b38[1][0] b38[1][1] b38[1][1]a b56[1][0] b56[1][1] b5[1][0]+66 b5[1][1][1] b8 b3[1] b3[1]b"/>
    </vehicle>

    <vehicle id="50" depart="1645.00" arrival="2158.00">
        <route edges="a16 a37 a36 a40 a153 a87[0] a20001+87[1][0] a87[1][1] am90 am91 a88 a187 a191 a17 a71 b38[0] b38[0]a b38[1][0] b38[1][1] b38[1][1]a b56[1][0] b56[1][1] b5[1][0]+66 b5[1][1][1] b8 b3[1] b3[1]b"/>
    </vehicle>

    <vehicle id="49" depart="1608.00" arrival="2161.00">
        <route edges="a16 a37 a36 a40 a153 a87[0] a20001+87[1][0] a87[1][1] am90 am91 a88 a187 a191 a17 a71 b38[0] b38[0]a b38[1][0] b38[1][1] b38[1][1]a b56[1][0] b56[1][1] b5[1][0]+66 b5[1][1][1] b8 b3[1] b3[1]b"/>
    </vehicle>

    <vehicle id="53" depart="1825.00" arrival="2172.00">
        <route edges="a16 a37 a36 a40 a153 a87[0] a20001+87[1][0] a87[1][1] am90 am91 a88 a187 a191 a17 a71 b38[0] b38[0]a b38[1][0] b38[1][1] b38[1][1]a b56[1][0] b56[1][1] b5[1][0]+66 b5[1][1][1] b8 b3[1] b3[1]b"/>
    </vehicle>

    <vehicle id="52" depart="1805.00" arrival="2178.00">
        <route edges="a16 a37 a36 a40 a153 a87[0] a20001+87[1][0] a87[1][1] am90 am91 a88 a187 a191 a17 a71 b38[0] b38[0]a b38[1][0] b38[1][1] b38[1][1]a b56[1][0] b56[1][1] b5[1][0]+66 b5[1][1][1] b8 b3[1] b3[1]b"/>
    </vehicle>

    <vehicle id="54" depart="1836.00" arrival="2209.00">
        <route edges="a16 a37 a36 a40 a153 a87[0] a20001+87[1][0] a87[1][1] am90 am91 a88 a187 a191 a17 a71 b38[0] b38[0]a b38[1][0] b38[1][1] b38[1][1]a b56[1][0] b56[1][1] b5[1][0]+66 b5[1][1][1] b8 b3[1] b3[1]b"/>
    </vehicle>

    <vehicle id="61" depart="2090.00" arrival="2313.00">
        <route edges="a161 a122 a1b a1 a204a[0] a124 b12 b50[0] b50[1] b50[1]a a181 a18 a17 a71 b2[0] b2[1][0] b2[1][1][0] b21"/>
    </vehicle>

    <vehicle id="55" depart="1917.00" arrival="2339.00">
        <route edges="a16 a37 a36 a40 a153 a87[0] a20001+87[1][0] a87[1][1] am90 am91 a88 a187 a191 a17 a71 b38[0] b38[0]a b38[1][0] b38[1][1] b38[1][1]a b56[1][0] b56[1][1] b5[1][0]+66 b5[1][1][1] b8 b3[1] b3[1]b"/>
    </vehicle>

    <vehicle id="56" depart="1944.00" arrival="2344.00">
        <route edges="a16 a37 a36 a40 a153 a87[0] a20001+87[1][0] a87[1][1] am90 am91 a88 a187 a191 a17 a71 b38[0] b38[0]a b38[1][0] b38[1][1] b38[1][1]a b56[1][0] b56[1][1] b5[1][0]+66 b5[1][1][1] b8 b3[1] b3[1]b"/>
    </vehicle>

    <vehicle id="57" depart="2040.00" arrival="2461.00">
        <route edges="a16 a37 a36 a40 a153 a87[0] a20001+87[1][0] a87[1][1] am90 am91 a88 a187 a191 a17 a71 b38[0] b38[0]a b38[1][0] b38[1][1] b38[1][1]a b56[1][0] b56[1][1] b5[1][0]+66 b5[1][1][1] b8 b3[1] b3[1]b"/>
    </vehicle>

    <vehicle id="58" depart="2063.00" arrival="2464.00">
        <route edges="a16 a37 a36 a40 a153 a87[0] a20001+87[1][0] a87[1][1] am90 am91 a88 a187 a191 a17 a71 b38[0] b38[0]a b38[1][0] b38[1][1] b38[1][1]a b56[1][0] b56[1][1] b5[1][0]+66 b5[1][1][1] b8 b3[1] b3[1]b"/>
    </vehicle>

    <vehicle id="59" depart="2069.00" arrival="2468.00">
        <route edges="a16 a37 a36 a40 a153 a87[0] a20001+87[1][0] a87[1][1] am90 am91 a88 a187 a191 a17 a71 b38[0] b38[0]a b38[1][0] b38[1][1] b38[1][1]a b56[1][0] b56[1][1] b5[1][0]+66 b5[1][1][1] b8 b3[1] b3[1]b"/>
    </vehicle>

    <vehicle id="60" depart="2072.00" arrival="2588.00">
        <route edges="a16 a37 a36 a40 a153 a87[0] a20001+87[1][0] a87[1][1] am90 am91 a88 a187 a191 a17 a71 b38[0] b38[0]a b38[1][0] b38[1][1] b38[1][1]a b56[1][0] b56[1][1] b5[1][0]+66 b5[1][1][1] b8 b3[1] b3[1]b"/>
    </vehicle>

    <vehicle id="62" depart="2135.00" arrival="2590.00">
        <route edges="a16 a37 a36 a40 a153 a87[0] a20001+87[1][0] a87[1][1] am90 am91 a88 a187 a191 a17 a71 b38[0] b38[0]a b38[1][0] b38[1][1] b38[1][1]a b56[1][0] b56[1][1] b5[1][0]+66 b5[1][1][1] b8 b3[1] b3[1]b"/>
    </vehicle>

    <vehicle id="63" depart="2145.00" arrival="2593.00">
        <route edges="a16 a37 a36 a40 a153 a87[0] a20001+87[1][0] a87[1][1] am90 am91 a88 a187 a191 a17 a71 b38[0] b38[0]a b38[1][0] b38[1][1] b38[1][1]a b56[1][0] b56[1][1] b5[1][0]+66 b5[1][1][1] b8 b3[1] b3[1]b"/>
    </vehicle>

    <vehicle id="64" depart="2150.00" arrival="2595.00">
        <route edges="a16 a37 a36 a40 a153 a87[0] a20001+87[1][0] a87[1][1] am90 am91 a88 a187 a191 a17 a71 b38[0] b38[0]a b38[1][0] b38[1][1] b38[1][1]a b56[1][0] b56[1][1] b5[1][0]+66 b5[1][1][1] b8 b3[1] b3[1]b"/>
    </vehicle>

    <vehicle id="68" depart="2261.00" arrival="2726.00">
        <route edges="a16 a37 a36 a40 a153 a87[0] a20001+87[1][0] a87[1][1] am90 am91 a88 a187 a191 a17 a71 b38[0] b38[0]a b38[1][0] b38[1][1] b38[1][1]a b56[1][0] b56[1][1] b5[1][0]+66 b5[1][1][1] b8 b3[1] b3[1]b"/>
    </vehicle>

    <vehicle id="69" depart="2286.00" arrival="2729.00">
        <route edges="a16 a37 a36 a40 a153 a87[0] a20001+87[1][0] a87[1][1] am90 am91 a88 a187 a191 a17 a71 b38[0] b38[0]a b38[1][0] b38[1][1] b38[1][1]a b56[1][0] b56[1][1] b5[1][0]+66 b5[1][1][1] b8 b3[1] b3[1]b"/>
    </vehicle>

    <vehicle id="70" depart="2305.00" arrival="2731.00">
        <route edges="a16 a37 a36 a40 a153 a87[0] a20001+87[1][0] a87[1][1] am90 am91 a88 a187 a191 a17 a71 b38[0] b38[0]a b38[1][0] b38[1][1] b38[1][1]a b56[1][0] b56[1][1] b5[1][0]+66 b5[1][1][1] b8 b3[1] b3[1]b"/>
    </vehicle>

    <vehicle id="65" depart="2172.00" arrival="2732.00">
        <route edges="a16 a37 a36 a40 a153 a87[0] a20001+87[1][0] a87[1][1] am90 am91 a88 a187 a191 a17 a71 b38[0] b38[0]a b38[1][0] b38[1][1] b38[1][1]a b56[1][0] b56[1][1] b5[1][0]+66 b5[1][1][1] b8 b3[1] b3[1]b"/>
    </vehicle>

    <vehicle id="66" depart="2191.00" arrival="2734.00">
        <route edges="a16 a37 a36 a40 a153 a87[0] a20001+87[1][0] a87[1][1] am90 am91 a88 a187 a191 a17 a71 b38[0] b38[0]a b38[1][0] b38[1][1] b38[1][1]a b56[1][0] b56[1][1] b5[1][0]+66 b5[1][1][1] b8 b3[1] b3[1]b"/>
    </vehicle>

    <vehicle id="71" depart="2324.00" arrival="2735.00">
        <route edges="a16 a37 a36 a40 a153 a87[0] a20001+87[1][0] a87[1][1] am90 am91 a88 a187 a191 a17 a71 b38[0] b38[0]a b38[1][0] b38[1][1] b38[1][1]a b56[1][0] b56[1][1] b5[1][0]+66 b5[1][1][1] b8 b3[1] b3[1]b"/>
    </vehicle>

    <vehicle id="67" depart="2222.00" arrival="2736.00">
        <route edges="a16 a37 a36 a40 a153 a87[0] a20001+87[1][0] a87[1][1] am90 am91 a88 a187 a191 a17 a71 b38[0] b38[0]a b38[1][0] b38[1][1] b38[1][1]a b56[1][0] b56[1][1] b5[1][0]+66 b5[1][1][1] b8 b3[1] b3[1]b"/>
    </vehicle>

    <vehicle id="73" depart="2418.00" arrival="2853.00">
        <route edges="a16 a37 a36 a40 a153 a87[0] a20001+87[1][0] a87[1][1] am90 am91 a88 a187 a191 a17 a71 b38[0] b38[0]a b38[1][0] b38[1][1] b38[1][1]a b56[1][0] b56[1][1] b5[1][0]+66 b5[1][1][1] b8 b3[1] b3[1]b"/>
    </vehicle>

    <vehicle id="76" depart="2449.00" arrival="2856.00">
        <route edges="a16 a37 a36 a40 a153 a87[0] a20001+87[1][0] a87[1][1] am90 am91 a88 a187 a191 a17 a71 b38[0] b38[0]a b38[1][0] b38[1][1] b38[1][1]a b56[1][0] b56[1][1] b5[1][0]+66 b5[1][1][1] b8 b3[1] b3[1]b"/>
    </vehicle>

    <vehicle id="72" depart="2411.00" arrival="2857.00">
        <route edges="a16 a37 a36 a40 a153 a87[0] a20001+87[1][0] a87[1][1] am90 am91 a88 a187 a191 a17 a71 b38[0] b38[0]a b38[1][0] b38[1][1] b38[1][1]a b56[1][0] b56[1][1] b5[1][0]+66 b5[1][1][1] b8 b3[1] b3[1]b"/>
    </vehicle>

    <vehicle id="75" depart="2434.00" arrival="2858.00">
        <route edges="a16 a37 a36 a40 a153 a87[0] a20001+87[1][0] a87[1][1] am90 am91 a88 a187 a191 a17 a71 b38[0] b38[0]a b38[1][0] b38[1][1] b38[1][1]a b56[1][0] b56[1][1] b5[1][0]+66 b5[1][1][1] b8 b3[1] b3[1]b"/>
    </vehicle>

    <vehicle id="74" depart="2428.00" arrival="2861.00">
        <route edges="a16 a37 a36 a40 a153 a87[0] a20001+87[1][0] a87[1][1] am90 am91 a88 a187 a191 a17 a71 b38[0] b38[0]a b38[1][0] b38[1][1] b38[1][1]a b56[1][0] b56[1][1] b5[1][0]+66 b5[1][1][1] b8 b3[1] b3[1]b"/>
    </vehicle>

    <vehicle id="79" depart="2654.00" arrival="2927.00">
        <route edges="a161 a122 a1b a1 a204a[0] a124 b12 b50[0] b50[1] b50[1]a a181 a18 a17 a71 b2[0] b2[1][0] b2[1][1][0] b21"/>
    </vehicle>

    <vehicle id="78" depart="2609.00" arrival="2988.00">
        <route edges="a16 a37 a36 a40 a153 a87[0] a20001+87[1][0] a87[1][1] am90 am91 a88 a187 a191 a17 a71 b38[0] b38[0]a b38[1][0] b38[1][1] b38[1][1]a b56[1][0] b56[1][1] b5[1][0]+66 b5[1][1][1] b8 b3[1] b3[1]b"/>
    </vehicle>

    <vehicle id="77" depart="2598.00" arrival="2989.00">
        <route edges="a16 a37 a36 a40 a153 a87[0] a20001+87[1][0] a87[1][1] am90 am91 a88 a187 a191 a17 a71 b38[0] b38[0]a b38[1][0] b38[1][1] b38[1][1]a b56[1][0] b56[1][1] b5[1][0]+66 b5[1][1][1] b8 b3[1] b3[1]b"/>
    </vehicle>

    <vehicle id="80" depart="2718.00" arrival="3120.00">
        <route edges="a16 a37 a36 a40 a153 a87[0] a20001+87[1][0] a87[1][1] am90 am91 a88 a187 a191 a17 a71 b38[0] b38[0]a b38[1][0] b38[1][1] b38[1][1]a b56[1][0] b56[1][1] b5[1][0]+66 b5[1][1][1] b8 b3[1] b3[1]b"/>
    </vehicle>

    <vehicle id="81" depart="2767.00" arrival="3164.00">
        <route edges="a16 a37 a36 a40 a153 a87[0] a20001+87[1][0] a87[1][1] am90 am91 a88 a187 a191 a17 a71 b38[0] b38[0]a b38[1][0] b38[1][1] b38[1][1]a b56[1][0] b56[1][1] b5[1][0]+66 b5[1][1][1] b8 b3[1] b3[1]b"/>
    </vehicle>

    <vehicle id="82" depart="2782.00" arrival="3164.00">
        <route edges="a16 a37 a36 a40 a153 a87[0] a20001+87[1][0] a87[1][1] am90 am91 a88 a187 a191 a17 a71 b38[0] b38[0]a b38[1][0] b38[1][1] b38[1][1]a b56[1][0] b56[1][1] b5[1][0]+66 b5[1][1][1] b8 b3[1] b3[1]b"/>
    </vehicle>

    <vehicle id="84" depart="2837.00" arrival="3247.00">
        <route edges="a16 a37 a36 a40 a153 a87[0] a20001+87[1][0] a87[1][1] am90 am91 a88 a187 a191 a17 a71 b38[0] b38[0]a b38[1][0] b38[1][1] b38[1][1]a b56[1][0] b56[1][1] b5[1][0]+66 b5[1][1][1] b8 b3[1] b3[1]b"/>
    </vehicle>

    <vehicle id="83" depart="2831.00" arrival="3253.00">
        <route edges="a16 a37 a36 a40 a153 a87[0] a20001+87[1][0] a87[1][1] am90 am91 a88 a187 a191 a17 a71 b38[0] b38[0]a b38[1][0] b38[1][1] b38[1][1]a b56[1][0] b56[1][1] b5[1][0]+66 b5[1][1][1] b8 b3[1] b3[1]b"/>
    </vehicle>

    <vehicle id="86" depart="2951.00" arrival="3290.00">
        <route edges="a16 a37 a36 a40 a153 a87[0] a20001+87[1][0] a87[1][1] am90 am91 a88 a187 a191 a17 a71 b38[0] b38[0]a b38[1][0] b38[1][1] b38[1][1]a b56[1][0] b56[1][1] b5[1][0]+66 b5[1][1][1] b8 b3[1] b3[1]b"/>
    </vehicle>

    <vehicle id="85" depart="2948.00" arrival="3291.00">
        <route edges="a16 a37 a36 a40 a153 a87[0] a20001+87[1][0] a87[1][1] am90 am91 a88 a187 a191 a17 a71 b38[0] b38[0]a b38[1][0] b38[1][1] b38[1][1]a b56[1][0] b56[1][1] b5[1][0]+66 b5[1][1][1] b8 b3[1] b3[1]b"/>
    </vehicle>

    <vehicle id="87" depart="2959.00" arrival="3291.00">
        <route edges="a16 a37 a36 a40 a153 a87[0] a20001+87[1][0] a87[1][1] am90 am91 a88 a187 a191 a17 a71 b38[0] b38[0]a b38[1][0] b38[1][1] b38[1][1]a b56[1][0] b56[1][1] b5[1][0]+66 b5[1][1][1] b8 b3[1] b3[1]b"/>
    </vehicle>

    <vehicle id="88" depart="2972.00" arrival="3387.00">
        <route edges="a16 a37 a36 a40 a153 a87[0] a20001+87[1][0] a87[1][1] am90 am91 a88 a187 a191 a17 a71 b38[0] b38[0]a b38[1][0] b38[1][1] b38[1][1]a b56[1][0] b56[1][1] b5[1][0]+66 b5[1][1][1] b8 b3[1] b3[1]b"/>
    </vehicle>

    <vehicle id="89" depart="2995.00" arrival="3408.00">
        <route edges="a16 a37 a36 a40 a153 a87[0] a20001+87[1][0] a87[1][1] am90 am91 a88 a187 a191 a17 a71 b38[0] b38[0]a b38[1][0] b38[1][1] b38[1][1]a b56[1][0] b56[1][1] b5[1][0]+66 b5[1][1][1] b8 b3[1] b3[1]b"/>
    </vehicle>

    <vehicle id="90" depart="3113.00" arrival="3566.00">
        <route edges="a16 a37 a36 a40 a153 a87[0] a20001+87[1][0] a87[1][1] am90 am91 a88 a187 a191 a17 a71 b38[0] b38[0]a b38[1][0] b38[1][1] b38[1][1]a b56[1][0] b56[1][1] b5[1][0]+66 b5[1][1][1] b8 b3[1] b3[1]b"/>
    </vehicle>

    <vehicle id="91" depart="3145.00" arrival="3574.00">
        <route edges="a16 a37 a36 a40 a153 a87[0] a20001+87[1][0] a87[1][1] am90 am91 a88 a187 a191 a17 a71 b38[0] b38[0]a b38[1][0] b38[1][1] b38[1][1]a b56[1][0] b56[1][1] b5[1][0]+66 b5[1][1][1] b8 b3[1] b3[1]b"/>
    </vehicle>

    <vehicle id="92" depart="3260.00" arrival="3712.00">
        <route edges="a16 a37 a36 a40 a153 a87[0] a20001+87[1][0] a87[1][1] am90 am91 a88 a187 a191 a17 a71 b38[0] b38[0]a b38[1][0] b38[1][1] b38[1][1]a b56[1][0] b56[1][1] b5[1][0]+66 b5[1][1][1] b8 b3[1] b3[1]b"/>
    </vehicle>

    <vehicle id="94" depart="3393.00" arrival="3828.00">
        <route edges="a16 a37 a36 a40 a153 a87[0] a20001+87[1][0] a87[1][1] am90 am91 a88 a187 a191 a17 a71 b38[0] b38[0]a b38[1][0] b38[1][1] b38[1][1]a b56[1][0] b56[1][1] b5[1][0]+66 b5[1][1][1] b8 b3[1] b3[1]b"/>
    </vehicle>

    <vehicle id="95" depart="3447.00" arrival="3830.00">
        <route edges="a16 a37 a36 a40 a153 a87[0] a20001+87[1][0] a87[1][1] am90 am91 a88 a187 a191 a17 a71 b38[0] b38[0]a b38[1][0] b38[1][1] b38[1][1]a b56[1][0] b56[1][1] b5[1][0]+66 b5[1][1][1] b8 b3[1] b3[1]b"/>
    </vehicle>

    <vehicle id="96" depart="3462.00" arrival="3833.00">
        <route edges="a16 a37 a36 a40 a153 a87[0] a20001+87[1][0] a87[1][1] am90 am91 a88 a187 a191 a17 a71 b38[0] b38[0]a b38[1][0] b38[1][1] b38[1][1]a b56[1][0] b56[1][1] b5[1][0]+66 b5[1][1][1] b8 b3[1] b3[1]b"/>
    </vehicle>

    <vehicle id="93" depart="3358.00" arrival="3836.00">
        <route edges="a16 a37 a36 a40 a153 a87[0] a20001+87[1][0] a87[1][1] am90 am91 a88 a187 a191 a17 a71 b38[0] b38[0]a b38[1][0] b38[1][1] b38[1][1]a b56[1][0] b56[1][1] b5[1][0]+66 b5[1][1][1] b8 b3[1] b3[1]b"/>
    </vehicle>

    <vehicle id="98" depart="3533.00" arrival="3954.00">
        <route edges="a16 a37 a36 a40 a153 a87[0] a20001+87[1][0] a87[1][1] am90 am91 a88 a187 a191 a17 a71 b38[0] b38[0]a b38[1][0] b38[1][1] b38[1][1]a b56[1][0] b56[1][1] b5[1][0]+66 b5[1][1][1] b8 b3[1] b3[1]b"/>
    </vehicle>

    <vehicle id="99" depart="3584.00" arrival="3955.00">
        <route edges="a16 a37 a36 a40 a153 a87[0] a20001+87[1][0] a87[1][1] am90 am91 a88 a187 a191 a17 a71 b38[0] b38[0]a b38[1][0] b38[1][1] b38[1][1]a b56[1][0] b56[1][1] b5[1][0]+66 b5[1][1][1] b8 b3[1] b3[1]b"/>
    </vehicle>
