<?xml version="1.0" encoding="UTF-8"?>

<!-- generated on 2025-03-20 10:22:17 by Eclipse SUMO GUI Version 1.21.0
<sumoConfiguration xmlns:xsi="http://www.w3.org/2001/XMLSchema-instance" xsi:noNamespaceSchemaLocation="http://sumo.dlr.de/xsd/sumoConfiguration.xsd">

    <input>
        <net-file value="${STATICPATH}/joined_lanes.net.xml"/>
        <route-files value="${SIMULATIONPATH}/generatedRoutes.rou.xml"/>
        <additional-files value="${STATICPATH}/detectors.add.xml,${STATICPATH}/joined_vtypes.add.xml,${STATICPATH}/joined_tls.add.xml"/>
    </input>

    <output>
        <fcd-output value="${SIMULATIONPATH}/fcd.xml"/>
        <queue-output value="${SIMULATIONPATH}/queue.xml"/>
        <summary-output value="${SIMULATIONPATH}/summary.xml"/>
        <tripinfo-output value="${SIMULATIONPATH}/tripinfos.xml"/>
        <vehroute-output value="${SIMULATIONPATH}/vehroute.xml"/>
        <save-state.prefix value="configs\state"/>
    </output>

    <processing>
        <ignore-junction-blocker value="1"/>
        <ignore-route-errors value="true"/>
        <time-to-teleport value="-1"/>
    </processing>

    <report>
        <log value="C:/Users/fabio/Desktop/sumo_log.txt"/>
        <no-step-log value="true"/>
    </report>

    <emissions>
        <phemlight-path value="configs\./PHEMlight/"/>
    </emissions>

    <traci_server>
        <remote-port value="56077"/>
    </traci_server>

</sumoConfiguration>
-->

<tripinfos xmlns:xsi="http://www.w3.org/2001/XMLSchema-instance" xsi:noNamespaceSchemaLocation="http://sumo.dlr.de/xsd/tripinfo_file.xsd">
    <tripinfo id="0" depart="1.00" departLane="a122_0" departPos="5.10" departSpeed="0.00" departDelay="0.32" arrival="253.00" arrivalLane="b2[1][1][1]b_0" arrivalPos="325.74" arrivalSpeed="14.34" duration="252.00" routeLength="2658.69" waitingTime="40.00" waitingCount="3" stopTime="0.00" timeLoss="69.09" rerouteNo="0" devices="vehroute_0 tripinfo_0 fcd_0" vType="DEFAULT_VEHTYPE" speedFactor="1.06" vaporized=""/>
    <tripinfo id="3" depart="13.00" departLane="a122_0" departPos="5.10" departSpeed="0.00" departDelay="2.48" arrival="256.00" arrivalLane="b2[1][1][1]b_0" arrivalPos="325.74" arrivalSpeed="14.26" duration="243.00" routeLength="2657.16" waitingTime="17.00" waitingCount="2" stopTime="0.00" timeLoss="63.89" rerouteNo="0" devices="vehroute_3 tripinfo_3 fcd_3" vType="DEFAULT_VEHTYPE" speedFactor="1.08" vaporized=""/>
    <tripinfo id="2" depart="10.00" departLane="a122_0" departPos="5.10" departSpeed="0.00" departDelay="2.43" arrival="263.00" arrivalLane="b2[1][1][1]b_0" arrivalPos="325.74" arrivalSpeed="13.23" duration="253.00" routeLength="2654.20" waitingTime="16.00" waitingCount="2" stopTime="0.00" timeLoss="61.13" rerouteNo="0" devices="vehroute_2 tripinfo_2 fcd_2" vType="DEFAULT_VEHTYPE" speedFactor="1.01" vaporized=""/>
    <tripinfo id="1" depart="7.00" departLane="a122_0" departPos="5.10" departSpeed="0.00" departDelay="0.23" arrival="266.00" arrivalLane="b2[1][1][1]b_0" arrivalPos="325.74" arrivalSpeed="12.35" duration="259.00" routeLength="2657.16" waitingTime="20.00" waitingCount="3" stopTime="0.00" timeLoss="51.57" rerouteNo="0" devices="vehroute_1 tripinfo_1 fcd_1" vType="DEFAULT_VEHTYPE" speedFactor="0.94" vaporized=""/>
    <tripinfo id="6" depart="27.00" departLane="a122_0" departPos="5.10" departSpeed="0.00" departDelay="1.69" arrival="363.00" arrivalLane="b2[1][1][1]b_1" arrivalPos="325.74" arrivalSpeed="14.30" duration="336.00" routeLength="2657.16" waitingTime="106.00" waitingCount="2" stopTime="0.00" timeLoss="150.38" rerouteNo="0" devices="vehroute_6 tripinfo_6 fcd_6" vType="DEFAULT_VEHTYPE" speedFactor="1.05" vaporized=""/>
    <tripinfo id="4" depart="15.00" departLane="a122_0" departPos="5.10" departSpeed="0.00" departDelay="1.26" arrival="364.00" arrivalLane="b2[1][1][1]b_0" arrivalPos="325.74" arrivalSpeed="13.81" duration="349.00" routeLength="2657.16" waitingTime="109.00" waitingCount="2" stopTime="0.00" timeLoss="160.88" rerouteNo="0" devices="vehroute_4 tripinfo_4 fcd_4" vType="DEFAULT_VEHTYPE" speedFactor="1.03" vaporized=""/>
    <tripinfo id="10" depart="67.00" departLane="a122_0" departPos="5.10" departSpeed="0.00" departDelay="2.20" arrival="364.00" arrivalLane="b2[1][1][1]b_2" arrivalPos="325.74" arrivalSpeed="14.52" duration="297.00" routeLength="2657.16" waitingTime="85.00" waitingCount="1" stopTime="0.00" timeLoss="118.71" rerouteNo="0" devices="vehroute_10 tripinfo_10 fcd_10" vType="DEFAULT_VEHTYPE" speedFactor="1.09" vaporized=""/>
    <tripinfo id="8" depart="49.00" departLane="a122_0" departPos="5.10" departSpeed="0.00" departDelay="0.75" arrival="375.00" arrivalLane="b2[1][1][1]b_0" arrivalPos="325.74" arrivalSpeed="12.53" duration="326.00" routeLength="2654.20" waitingTime="87.00" waitingCount="1" stopTime="0.00" timeLoss="119.53" rerouteNo="0" devices="vehroute_8 tripinfo_8 fcd_8" vType="DEFAULT_VEHTYPE" speedFactor="0.94" vaporized=""/>
    <tripinfo id="7" depart="45.00" departLane="a122_0" departPos="5.10" departSpeed="0.00" departDelay="0.69" arrival="377.00" arrivalLane="b2[1][1][1]b_0" arrivalPos="325.74" arrivalSpeed="11.82" duration="332.00" routeLength="2657.16" waitingTime="85.00" waitingCount="1" stopTime="0.00" timeLoss="113.19" rerouteNo="0" devices="vehroute_7 tripinfo_7 fcd_7" vType="DEFAULT_VEHTYPE" speedFactor="0.89" vaporized=""/>
    <tripinfo id="5" depart="25.00" departLane="a122_0" departPos="5.10" departSpeed="0.00" departDelay="0.84" arrival="382.00" arrivalLane="b2[1][1][1]b_0" arrivalPos="325.74" arrivalSpeed="11.53" duration="357.00" routeLength="2657.16" waitingTime="92.00" waitingCount="2" stopTime="0.00" timeLoss="123.85" rerouteNo="0" devices="vehroute_5 tripinfo_5 fcd_5" vType="DEFAULT_VEHTYPE" speedFactor="0.83" vaporized=""/>
    <tripinfo id="9" depart="65.00" departLane="a122_0" departPos="5.10" departSpeed="0.00" departDelay="0.40" arrival="384.00" arrivalLane="b2[1][1][1]b_1" arrivalPos="325.74" arrivalSpeed="10.85" duration="319.00" routeLength="2657.16" waitingTime="63.00" waitingCount="2" stopTime="0.00" timeLoss="92.99" rerouteNo="0" devices="vehroute_9 tripinfo_9 fcd_9" vType="DEFAULT_VEHTYPE" speedFactor="0.86" vaporized=""/>
    <tripinfo id="17" depart="106.00" departLane="a210_0" departPos="5.10" departSpeed="0.00" departDelay="0.29" arrival="446.00" arrivalLane="b1[1]_0" arrivalPos="486.33" arrivalSpeed="12.81" duration="340.00" routeLength="3104.28" waitingTime="55.00" waitingCount="4" stopTime="0.00" timeLoss="98.56" rerouteNo="0" devices="vehroute_17 tripinfo_17 fcd_17" vType="DEFAULT_VEHTYPE" speedFactor="0.94" vaporized=""/>
    <tripinfo id="13" depart="91.00" departLane="a122_0" departPos="5.10" departSpeed="0.00" departDelay="0.49" arrival="481.00" arrivalLane="b2[1][1][1]b_0" arrivalPos="325.74" arrivalSpeed="14.55" duration="390.00" routeLength="2654.20" waitingTime="160.00" waitingCount="5" stopTime="0.00" timeLoss="217.46" rerouteNo="0" devices="vehroute_13 tripinfo_13 fcd_13" vType="DEFAULT_VEHTYPE" speedFactor="1.12" vaporized=""/>
    <tripinfo id="19" depart="113.00" departLane="a122_0" departPos="5.10" departSpeed="0.00" departDelay="0.98" arrival="482.00" arrivalLane="b2[1][1][1]b_1" arrivalPos="325.74" arrivalSpeed="15.91" duration="369.00" routeLength="2658.69" waitingTime="119.00" waitingCount="3" stopTime="0.00" timeLoss="201.71" rerouteNo="0" devices="vehroute_19 tripinfo_19 fcd_19" vType="DEFAULT_VEHTYPE" speedFactor="1.16" vaporized=""/>
    <tripinfo id="12" depart="83.00" departLane="a122_0" departPos="5.10" departSpeed="0.00" departDelay="0.44" arrival="486.00" arrivalLane="b2[1][1][1]b_0" arrivalPos="325.74" arrivalSpeed="14.10" duration="403.00" routeLength="2658.69" waitingTime="175.00" waitingCount="6" stopTime="0.00" timeLoss="217.38" rerouteNo="0" devices="vehroute_12 tripinfo_12 fcd_12" vType="DEFAULT_VEHTYPE" speedFactor="1.05" vaporized=""/>
    <tripinfo id="20" depart="118.00" departLane="a36_0" departPos="5.10" departSpeed="0.00" departDelay="0.48" arrival="488.00" arrivalLane="b10_0" arrivalPos="224.30" arrivalSpeed="12.95" duration="370.00" routeLength="2939.16" waitingTime="102.00" waitingCount="4" stopTime="0.00" timeLoss="158.04" rerouteNo="0" devices="vehroute_20 tripinfo_20 fcd_20" vType="DEFAULT_VEHTYPE" speedFactor="1.02" vaporized=""/>
    <tripinfo id="11" depart="80.00" departLane="a122_0" departPos="5.10" departSpeed="0.00" departDelay="0.67" arrival="489.00" arrivalLane="b2[1][1][1]b_0" arrivalPos="325.74" arrivalSpeed="13.31" duration="409.00" routeLength="2654.20" waitingTime="168.00" waitingCount="5" stopTime="0.00" timeLoss="220.24" rerouteNo="0" devices="vehroute_11 tripinfo_11 fcd_11" vType="DEFAULT_VEHTYPE" speedFactor="1.03" vaporized=""/>
    <tripinfo id="14" depart="98.00" departLane="a122_0" departPos="5.10" departSpeed="0.00" departDelay="0.17" arrival="490.00" arrivalLane="b2[1][1][1]b_0" arrivalPos="325.74" arrivalSpeed="13.54" duration="392.00" routeLength="2658.69" waitingTime="143.00" waitingCount="6" stopTime="0.00" timeLoss="196.41" rerouteNo="0" devices="vehroute_14 tripinfo_14 fcd_14" vType="DEFAULT_VEHTYPE" speedFactor="0.99" vaporized=""/>
    <tripinfo id="32" depart="180.00" departLane="a36_0" departPos="5.10" departSpeed="0.00" departDelay="0.57" arrival="490.00" arrivalLane="b10_0" arrivalPos="224.30" arrivalSpeed="13.38" duration="310.00" routeLength="2939.16" waitingTime="36.00" waitingCount="2" stopTime="0.00" timeLoss="93.92" rerouteNo="0" devices="vehroute_32 tripinfo_32 fcd_32" vType="DEFAULT_VEHTYPE" speedFactor="1.01" vaporized=""/>
    <tripinfo id="28" depart="162.00" departLane="a210_0" departPos="5.10" departSpeed="0.00" departDelay="0.53" arrival="498.00" arrivalLane="b3[1]b_0" arrivalPos="239.77" arrivalSpeed="15.30" duration="336.00" routeLength="3030.71" waitingTime="93.00" waitingCount="3" stopTime="0.00" timeLoss="142.50" rerouteNo="0" devices="vehroute_28 tripinfo_28 fcd_28" vType="DEFAULT_VEHTYPE" speedFactor="1.13" vaporized=""/>
    <tripinfo id="15" depart="100.00" departLane="a122_0" departPos="5.10" departSpeed="0.00" departDelay="1.29" arrival="499.00" arrivalLane="b2[1][1][1]b_0" arrivalPos="325.74" arrivalSpeed="11.68" duration="399.00" routeLength="2654.20" waitingTime="118.00" waitingCount="5" stopTime="0.00" timeLoss="190.28" rerouteNo="0" devices="vehroute_15 tripinfo_15 fcd_15" vType="DEFAULT_VEHTYPE" speedFactor="0.93" vaporized=""/>
    <tripinfo id="22" depart="131.00" departLane="a122_0" departPos="5.10" departSpeed="0.00" departDelay="0.36" arrival="499.00" arrivalLane="b2[1][1][1]b_2" arrivalPos="325.74" arrivalSpeed="12.42" duration="368.00" routeLength="2654.20" waitingTime="97.00" waitingCount="3" stopTime="0.00" timeLoss="169.44" rerouteNo="0" devices="vehroute_22 tripinfo_22 fcd_22" vType="DEFAULT_VEHTYPE" speedFactor="0.97" vaporized=""/>
    <tripinfo id="18" depart="107.00" departLane="a122_0" departPos="5.10" departSpeed="0.00" departDelay="0.19" arrival="501.00" arrivalLane="b2[1][1][1]b_1" arrivalPos="325.74" arrivalSpeed="12.83" duration="394.00" routeLength="2654.20" waitingTime="101.00" waitingCount="4" stopTime="0.00" timeLoss="186.80" rerouteNo="0" devices="vehroute_18 tripinfo_18 fcd_18" vType="DEFAULT_VEHTYPE" speedFactor="0.94" vaporized=""/>
    <tripinfo id="30" depart="169.00" departLane="a122_0" departPos="5.10" departSpeed="0.00" departDelay="1.60" arrival="501.00" arrivalLane="b2[1][1][1]b_2" arrivalPos="325.74" arrivalSpeed="15.75" duration="332.00" routeLength="2654.20" waitingTime="75.00" waitingCount="3" stopTime="0.00" timeLoss="167.48" rerouteNo="0" devices="vehroute_30 tripinfo_30 fcd_30" vType="DEFAULT_VEHTYPE" speedFactor="1.18" vaporized=""/>
    <tripinfo id="42" depart="247.00" departLane="a210_0" departPos="5.10" departSpeed="0.00" departDelay="0.38" arrival="501.00" arrivalLane="b3[1]b_0" arrivalPos="239.77" arrivalSpeed="14.21" duration="254.00" routeLength="3025.46" waitingTime="16.00" waitingCount="2" stopTime="0.00" timeLoss="52.83" rerouteNo="0" devices="vehroute_42 tripinfo_42 fcd_42" vType="DEFAULT_VEHTYPE" speedFactor="1.09" vaporized=""/>
    <tripinfo id="23" depart="144.00" departLane="a122_0" departPos="5.10" departSpeed="0.00" departDelay="0.84" arrival="502.00" arrivalLane="b2[1][1][1]b_0" arrivalPos="325.74" arrivalSpeed="12.32" duration="358.00" routeLength="2657.16" waitingTime="103.00" waitingCount="3" stopTime="0.00" timeLoss="138.91" rerouteNo="0" devices="vehroute_23 tripinfo_23 fcd_23" vType="DEFAULT_VEHTYPE" speedFactor="0.89" vaporized=""/>
    <tripinfo id="31" depart="179.00" departLane="a122_0" departPos="5.10" departSpeed="0.00" departDelay="0.81" arrival="502.00" arrivalLane="b2[1][1][1]b_2" arrivalPos="325.74" arrivalSpeed="15.53" duration="323.00" routeLength="2654.20" waitingTime="72.00" waitingCount="3" stopTime="0.00" timeLoss="155.33" rerouteNo="0" devices="vehroute_31 tripinfo_31 fcd_31" vType="DEFAULT_VEHTYPE" speedFactor="1.15" vaporized=""/>
    <tripinfo id="16" depart="105.00" departLane="a122_0" departPos="5.10" departSpeed="0.00" departDelay="0.34" arrival="504.00" arrivalLane="b2[1][1][1]b_0" arrivalPos="325.74" arrivalSpeed="11.98" duration="399.00" routeLength="2658.69" waitingTime="115.00" waitingCount="5" stopTime="0.00" timeLoss="178.07" rerouteNo="0" devices="vehroute_16 tripinfo_16 fcd_16" vType="DEFAULT_VEHTYPE" speedFactor="0.88" vaporized=""/>
    <tripinfo id="29" depart="167.00" departLane="a122_0" departPos="5.10" departSpeed="0.00" departDelay="0.96" arrival="508.00" arrivalLane="b2[1][1][1]b_1" arrivalPos="325.74" arrivalSpeed="12.92" duration="341.00" routeLength="2657.16" waitingTime="66.00" waitingCount="3" stopTime="0.00" timeLoss="132.58" rerouteNo="0" devices="vehroute_29 tripinfo_29 fcd_29" vType="DEFAULT_VEHTYPE" speedFactor="0.93" vaporized=""/>
    <tripinfo id="25" depart="160.00" departLane="a122_0" departPos="5.10" departSpeed="0.00" departDelay="0.20" arrival="509.00" arrivalLane="b2[1][1][1]b_0" arrivalPos="325.74" arrivalSpeed="11.64" duration="349.00" routeLength="2657.16" waitingTime="81.00" waitingCount="2" stopTime="0.00" timeLoss="127.02" rerouteNo="0" devices="vehroute_25 tripinfo_25 fcd_25" vType="DEFAULT_VEHTYPE" speedFactor="0.87" vaporized=""/>
    <tripinfo id="26" depart="162.00" departLane="a122_0" departPos="5.10" departSpeed="0.00" departDelay="1.46" arrival="511.00" arrivalLane="b2[1][1][1]b_1" arrivalPos="325.74" arrivalSpeed="12.08" duration="349.00" routeLength="2657.16" waitingTime="78.00" waitingCount="3" stopTime="0.00" timeLoss="137.67" rerouteNo="0" devices="vehroute_26 tripinfo_26 fcd_26" vType="DEFAULT_VEHTYPE" speedFactor="0.92" vaporized=""/>
    <tripinfo id="24" depart="147.00" departLane="a122_0" departPos="5.10" departSpeed="0.00" departDelay="0.99" arrival="512.00" arrivalLane="b2[1][1][1]b_0" arrivalPos="325.74" arrivalSpeed="10.90" duration="365.00" routeLength="2657.16" waitingTime="87.00" waitingCount="2" stopTime="0.00" timeLoss="129.61" rerouteNo="0" devices="vehroute_24 tripinfo_24 fcd_24" vType="DEFAULT_VEHTYPE" speedFactor="0.83" vaporized=""/>
    <tripinfo id="27" depart="164.00" departLane="a122_0" departPos="5.10" departSpeed="0.00" departDelay="2.80" arrival="512.00" arrivalLane="b2[1][1][1]b_2" arrivalPos="325.74" arrivalSpeed="13.10" duration="348.00" routeLength="2658.69" waitingTime="84.00" waitingCount="2" stopTime="0.00" timeLoss="143.17" rerouteNo="0" devices="vehroute_27 tripinfo_27 fcd_27" vType="DEFAULT_VEHTYPE" speedFactor="0.95" vaporized=""/>
    <tripinfo id="21" depart="121.00" departLane="a122_0" departPos="5.10" departSpeed="0.00" departDelay="0.82" arrival="513.00" arrivalLane="b2[1][1][1]b_1" arrivalPos="325.74" arrivalSpeed="12.95" duration="392.00" routeLength="2654.20" waitingTime="100.00" waitingCount="3" stopTime="0.00" timeLoss="199.57" rerouteNo="0" devices="vehroute_21 tripinfo_21 fcd_21" vType="DEFAULT_VEHTYPE" speedFactor="1.01" vaporized=""/>
    <tripinfo id="44" depart="268.00" departLane="a210_0" departPos="5.10" departSpeed="0.00" departDelay="0.73" arrival="526.00" arrivalLane="b3[1]b_0" arrivalPos="239.77" arrivalSpeed="14.06" duration="258.00" routeLength="3030.71" waitingTime="26.00" waitingCount="1" stopTime="0.00" timeLoss="47.84" rerouteNo="0" devices="vehroute_44 tripinfo_44 fcd_44" vType="DEFAULT_VEHTYPE" speedFactor="1.04" vaporized=""/>
    <tripinfo id="37" depart="226.00" departLane="a122_0" departPos="5.10" departSpeed="0.00" departDelay="0.85" arrival="608.00" arrivalLane="b2[1][1][1]b_1" arrivalPos="325.74" arrivalSpeed="15.26" duration="382.00" routeLength="2654.20" waitingTime="152.00" waitingCount="5" stopTime="0.00" timeLoss="217.78" rerouteNo="0" devices="vehroute_37 tripinfo_37 fcd_37" vType="DEFAULT_VEHTYPE" speedFactor="1.18" vaporized=""/>
    <tripinfo id="33" depart="191.00" departLane="a122_0" departPos="5.10" departSpeed="0.00" departDelay="0.91" arrival="609.00" arrivalLane="b2[1][1][1]b_0" arrivalPos="325.74" arrivalSpeed="15.96" duration="418.00" routeLength="2661.65" waitingTime="203.00" waitingCount="5" stopTime="0.00" timeLoss="252.52" rerouteNo="0" devices="vehroute_33 tripinfo_33 fcd_33" vType="DEFAULT_VEHTYPE" speedFactor="1.17" vaporized=""/>
    <tripinfo id="38" depart="233.00" departLane="a122_0" departPos="5.10" departSpeed="0.00" departDelay="0.83" arrival="609.00" arrivalLane="b2[1][1][1]b_2" arrivalPos="325.74" arrivalSpeed="15.08" duration="376.00" routeLength="2654.20" waitingTime="141.00" waitingCount="4" stopTime="0.00" timeLoss="200.88" rerouteNo="0" devices="vehroute_38 tripinfo_38 fcd_38" vType="DEFAULT_VEHTYPE" speedFactor="1.10" vaporized=""/>
    <tripinfo id="34" depart="203.00" departLane="a122_0" departPos="5.10" departSpeed="0.00" departDelay="0.91" arrival="615.00" arrivalLane="b2[1][1][1]b_0" arrivalPos="325.74" arrivalSpeed="12.53" duration="412.00" routeLength="2654.20" waitingTime="172.00" waitingCount="5" stopTime="0.00" timeLoss="217.11" rerouteNo="0" devices="vehroute_34 tripinfo_34 fcd_34" vType="DEFAULT_VEHTYPE" speedFactor="0.99" vaporized=""/>
    <tripinfo id="36" depart="213.00" departLane="a122_0" departPos="5.10" departSpeed="0.00" departDelay="0.26" arrival="615.00" arrivalLane="b2[1][1][1]b_1" arrivalPos="325.74" arrivalSpeed="12.39" duration="402.00" routeLength="2657.16" waitingTime="154.00" waitingCount="5" stopTime="0.00" timeLoss="203.38" rerouteNo="0" devices="vehroute_36 tripinfo_36 fcd_36" vType="DEFAULT_VEHTYPE" speedFactor="0.97" vaporized=""/>
    <tripinfo id="35" depart="207.00" departLane="a36_0" departPos="5.10" departSpeed="0.00" departDelay="0.79" arrival="616.00" arrivalLane="b10_0" arrivalPos="224.30" arrivalSpeed="13.84" duration="409.00" routeLength="2939.16" waitingTime="143.00" waitingCount="5" stopTime="0.00" timeLoss="196.20" rerouteNo="0" devices="vehroute_35 tripinfo_35 fcd_35" vType="DEFAULT_VEHTYPE" speedFactor="1.02" vaporized=""/>
    <tripinfo id="40" depart="243.00" departLane="a122_0" departPos="5.10" departSpeed="0.00" departDelay="0.42" arrival="617.00" arrivalLane="b2[1][1][1]b_0" arrivalPos="325.74" arrivalSpeed="14.26" duration="374.00" routeLength="2654.20" waitingTime="121.00" waitingCount="3" stopTime="0.00" timeLoss="185.78" rerouteNo="0" devices="vehroute_40 tripinfo_40 fcd_40" vType="DEFAULT_VEHTYPE" speedFactor="1.03" vaporized=""/>
    <tripinfo id="45" depart="278.00" departLane="a122_0" departPos="5.10" departSpeed="0.00" departDelay="0.52" arrival="617.00" arrivalLane="b2[1][1][1]b_2" arrivalPos="325.74" arrivalSpeed="15.10" duration="339.00" routeLength="2654.20" waitingTime="82.00" waitingCount="4" stopTime="0.00" timeLoss="160.12" rerouteNo="0" devices="vehroute_45 tripinfo_45 fcd_45" vType="DEFAULT_VEHTYPE" speedFactor="1.09" vaporized=""/>
    <tripinfo id="41" depart="247.00" departLane="a122_0" departPos="5.10" departSpeed="0.00" departDelay="0.97" arrival="618.00" arrivalLane="b2[1][1][1]b_0" arrivalPos="325.74" arrivalSpeed="12.97" duration="371.00" routeLength="2657.16" waitingTime="123.00" waitingCount="4" stopTime="0.00" timeLoss="168.32" rerouteNo="0" devices="vehroute_41 tripinfo_41 fcd_41" vType="DEFAULT_VEHTYPE" speedFactor="0.96" vaporized=""/>
    <tripinfo id="46" depart="280.00" departLane="a36_0" departPos="5.10" departSpeed="0.00" departDelay="0.59" arrival="618.00" arrivalLane="b10_0" arrivalPos="224.30" arrivalSpeed="12.71" duration="338.00" routeLength="2939.16" waitingTime="73.00" waitingCount="3" stopTime="0.00" timeLoss="120.37" rerouteNo="0" devices="vehroute_46 tripinfo_46 fcd_46" vType="DEFAULT_VEHTYPE" speedFactor="1.00" vaporized=""/>
    <tripinfo id="51" depart="320.00" departLane="a122_0" departPos="5.10" departSpeed="0.00" departDelay="0.18" arrival="618.00" arrivalLane="b2[1][1][1]b_2" arrivalPos="325.74" arrivalSpeed="15.32" duration="298.00" routeLength="2654.20" waitingTime="61.00" waitingCount="2" stopTime="0.00" timeLoss="132.54" rerouteNo="0" devices="vehroute_51 tripinfo_51 fcd_51" vType="DEFAULT_VEHTYPE" speedFactor="1.17" vaporized=""/>
    <tripinfo id="43" depart="262.00" departLane="a122_0" departPos="5.10" departSpeed="0.00" departDelay="0.38" arrival="620.00" arrivalLane="b2[1][1][1]b_1" arrivalPos="325.74" arrivalSpeed="14.15" duration="358.00" routeLength="2661.65" waitingTime="95.00" waitingCount="4" stopTime="0.00" timeLoss="171.33" rerouteNo="0" devices="vehroute_43 tripinfo_43 fcd_43" vType="DEFAULT_VEHTYPE" speedFactor="1.04" vaporized=""/>
    <tripinfo id="39" depart="236.00" departLane="a122_0" departPos="5.10" departSpeed="0.00" departDelay="3.13" arrival="625.00" arrivalLane="b2[1][1][1]b_0" arrivalPos="325.74" arrivalSpeed="11.36" duration="389.00" routeLength="2654.20" waitingTime="123.00" waitingCount="3" stopTime="0.00" timeLoss="174.15" rerouteNo="0" devices="vehroute_39 tripinfo_39 fcd_39" vType="DEFAULT_VEHTYPE" speedFactor="0.90" vaporized=""/>
    <tripinfo id="47" depart="296.00" departLane="a122_0" departPos="5.10" departSpeed="0.00" departDelay="0.05" arrival="629.00" arrivalLane="b2[1][1][1]b_0" arrivalPos="325.74" arrivalSpeed="11.41" duration="333.00" routeLength="2654.20" waitingTime="61.00" waitingCount="2" stopTime="0.00" timeLoss="117.70" rerouteNo="0" devices="vehroute_47 tripinfo_47 fcd_47" vType="DEFAULT_VEHTYPE" speedFactor="0.90" vaporized=""/>
    <tripinfo id="48" depart="304.00" departLane="a122_0" departPos="5.10" departSpeed="0.00" departDelay="0.19" arrival="634.00" arrivalLane="b2[1][1][1]b_0" arrivalPos="325.74" arrivalSpeed="11.18" duration="330.00" routeLength="2657.16" waitingTime="61.00" waitingCount="2" stopTime="0.00" timeLoss="108.31" rerouteNo="0" devices="vehroute_48 tripinfo_48 fcd_48" vType="DEFAULT_VEHTYPE" speedFactor="0.88" vaporized=""/>
    <tripinfo id="49" depart="312.00" departLane="a122_0" departPos="5.10" departSpeed="0.00" departDelay="0.87" arrival="636.00" arrivalLane="b2[1][1][1]b_1" arrivalPos="325.74" arrivalSpeed="11.44" duration="324.00" routeLength="2657.16" waitingTime="55.00" waitingCount="2" stopTime="0.00" timeLoss="96.10" rerouteNo="0" devices="vehroute_49 tripinfo_49 fcd_49" vType="DEFAULT_VEHTYPE" speedFactor="0.85" vaporized=""/>
    <tripinfo id="50" depart="314.00" departLane="a122_0" departPos="5.10" departSpeed="0.00" departDelay="0.15" arrival="637.00" arrivalLane="b2[1][1][1]b_0" arrivalPos="325.74" arrivalSpeed="11.41" duration="323.00" routeLength="2657.16" waitingTime="50.00" waitingCount="3" stopTime="0.00" timeLoss="96.39" rerouteNo="0" devices="vehroute_50 tripinfo_50 fcd_50" vType="DEFAULT_VEHTYPE" speedFactor="0.85" vaporized=""/>
    <tripinfo id="66" depart="417.00" departLane="a210_0" departPos="5.10" departSpeed="0.00" departDelay="0.34" arrival="675.00" arrivalLane="b3[1]b_0" arrivalPos="239.77" arrivalSpeed="12.08" duration="258.00" routeLength="3030.71" waitingTime="0.00" waitingCount="0" stopTime="0.00" timeLoss="16.40" rerouteNo="0" devices="vehroute_66 tripinfo_66 fcd_66" vType="DEFAULT_VEHTYPE" speedFactor="0.91" vaporized=""/>
    <tripinfo id="60" depart="375.00" departLane="a122_0" departPos="5.10" departSpeed="0.00" departDelay="0.11" arrival="735.00" arrivalLane="b2[1][1][1]b_1" arrivalPos="325.74" arrivalSpeed="13.97" duration="360.00" routeLength="2654.20" waitingTime="103.00" waitingCount="2" stopTime="0.00" timeLoss="181.32" rerouteNo="0" devices="vehroute_60 tripinfo_60 fcd_60" vType="DEFAULT_VEHTYPE" speedFactor="1.08" vaporized=""/>
    <tripinfo id="57" depart="352.00" departLane="a122_0" departPos="5.10" departSpeed="0.00" departDelay="0.77" arrival="736.00" arrivalLane="b2[1][1][1]b_0" arrivalPos="325.74" arrivalSpeed="14.91" duration="384.00" routeLength="2661.65" waitingTime="143.00" waitingCount="6" stopTime="0.00" timeLoss="214.21" rerouteNo="0" devices="vehroute_57 tripinfo_57 fcd_57" vType="DEFAULT_VEHTYPE" speedFactor="1.14" vaporized=""/>
    <tripinfo id="61" depart="379.00" departLane="a122_0" departPos="5.10" departSpeed="0.00" departDelay="0.07" arrival="736.00" arrivalLane="b2[1][1][1]b_2" arrivalPos="325.74" arrivalSpeed="14.31" duration="357.00" routeLength="2654.20" waitingTime="101.00" waitingCount="2" stopTime="0.00" timeLoss="184.22" rerouteNo="0" devices="vehroute_61 tripinfo_61 fcd_61" vType="DEFAULT_VEHTYPE" speedFactor="1.12" vaporized=""/>
    <tripinfo id="52" depart="333.00" departLane="a122_0" departPos="5.10" departSpeed="0.00" departDelay="0.77" arrival="739.00" arrivalLane="b2[1][1][1]b_0" arrivalPos="325.74" arrivalSpeed="13.06" duration="406.00" routeLength="2658.69" waitingTime="168.00" waitingCount="5" stopTime="0.00" timeLoss="215.43" rerouteNo="0" devices="vehroute_52 tripinfo_52 fcd_52" vType="DEFAULT_VEHTYPE" speedFactor="1.02" vaporized=""/>
    <tripinfo id="53" depart="335.00" departLane="a36_0" departPos="5.10" departSpeed="0.00" departDelay="0.09" arrival="739.00" arrivalLane="b10_0" arrivalPos="224.30" arrivalSpeed="14.38" duration="404.00" routeLength="2939.16" waitingTime="147.00" waitingCount="6" stopTime="0.00" timeLoss="206.99" rerouteNo="0" devices="vehroute_53 tripinfo_53 fcd_53" vType="DEFAULT_VEHTYPE" speedFactor="1.10" vaporized=""/>
    <tripinfo id="58" depart="356.00" departLane="a122_0" departPos="5.10" departSpeed="0.00" departDelay="0.05" arrival="740.00" arrivalLane="b2[1][1][1]b_2" arrivalPos="325.74" arrivalSpeed="13.95" duration="384.00" routeLength="2657.16" waitingTime="130.00" waitingCount="6" stopTime="0.00" timeLoss="194.85" rerouteNo="0" devices="vehroute_58 tripinfo_58 fcd_58" vType="DEFAULT_VEHTYPE" speedFactor="1.02" vaporized=""/>
    <tripinfo id="54" depart="337.00" departLane="a122_0" departPos="5.10" departSpeed="0.00" departDelay="0.73" arrival="741.00" arrivalLane="b2[1][1][1]b_0" arrivalPos="325.74" arrivalSpeed="13.18" duration="404.00" routeLength="2657.16" waitingTime="154.00" waitingCount="6" stopTime="0.00" timeLoss="210.91" rerouteNo="0" devices="vehroute_54 tripinfo_54 fcd_54" vType="DEFAULT_VEHTYPE" speedFactor="1.00" vaporized=""/>
    <tripinfo id="55" depart="339.00" departLane="a36_0" departPos="5.10" departSpeed="0.00" departDelay="0.47" arrival="743.00" arrivalLane="b10_0" arrivalPos="224.30" arrivalSpeed="13.09" duration="404.00" routeLength="2939.16" waitingTime="124.00" waitingCount="5" stopTime="0.00" timeLoss="186.09" rerouteNo="0" devices="vehroute_55 tripinfo_55 fcd_55" vType="DEFAULT_VEHTYPE" speedFactor="1.00" vaporized=""/>
    <tripinfo id="59" depart="365.00" departLane="a122_0" departPos="5.10" departSpeed="0.00" departDelay="0.46" arrival="743.00" arrivalLane="b2[1][1][1]b_1" arrivalPos="325.74" arrivalSpeed="13.30" duration="378.00" routeLength="2657.16" waitingTime="116.00" waitingCount="3" stopTime="0.00" timeLoss="177.82" rerouteNo="0" devices="vehroute_59 tripinfo_59 fcd_59" vType="DEFAULT_VEHTYPE" speedFactor="0.97" vaporized=""/>
    <tripinfo id="64" depart="403.00" departLane="a122_0" departPos="5.10" departSpeed="0.00" departDelay="0.03" arrival="743.00" arrivalLane="b2[1][1][1]b_2" arrivalPos="325.74" arrivalSpeed="12.58" duration="340.00" routeLength="2657.16" waitingTime="87.00" waitingCount="3" stopTime="0.00" timeLoss="133.19" rerouteNo="0" devices="vehroute_64 tripinfo_64 fcd_64" vType="DEFAULT_VEHTYPE" speedFactor="0.94" vaporized=""/>
    <tripinfo id="62" depart="383.00" departLane="a122_0" departPos="5.10" departSpeed="0.00" departDelay="0.16" arrival="744.00" arrivalLane="b2[1][1][1]b_0" arrivalPos="325.74" arrivalSpeed="13.09" duration="361.00" routeLength="2654.20" waitingTime="98.00" waitingCount="2" stopTime="0.00" timeLoss="170.68" rerouteNo="0" devices="vehroute_62 tripinfo_62 fcd_62" vType="DEFAULT_VEHTYPE" speedFactor="1.02" vaporized=""/>
    <tripinfo id="73" depart="461.00" departLane="a122_0" departPos="5.10" departSpeed="0.00" departDelay="0.24" arrival="745.00" arrivalLane="b2[1][1][1]b_2" arrivalPos="325.74" arrivalSpeed="14.48" duration="284.00" routeLength="2657.16" waitingTime="40.00" waitingCount="2" stopTime="0.00" timeLoss="100.36" rerouteNo="0" devices="vehroute_73 tripinfo_73 fcd_73" vType="DEFAULT_VEHTYPE" speedFactor="1.06" vaporized=""/>
    <tripinfo id="71" depart="455.00" departLane="a122_0" departPos="5.10" departSpeed="0.00" departDelay="0.49" arrival="748.00" arrivalLane="b2[1][1][1]b_0" arrivalPos="325.74" arrivalSpeed="13.50" duration="293.00" routeLength="2657.16" waitingTime="45.00" waitingCount="2" stopTime="0.00" timeLoss="93.81" rerouteNo="0" devices="vehroute_71 tripinfo_71 fcd_71" vType="DEFAULT_VEHTYPE" speedFactor="0.97" vaporized=""/>
    <tripinfo id="56" depart="339.00" departLane="a122_0" departPos="5.10" departSpeed="0.00" departDelay="0.05" arrival="750.00" arrivalLane="b2[1][1][1]b_0" arrivalPos="325.74" arrivalSpeed="11.61" duration="411.00" routeLength="2654.20" waitingTime="133.00" waitingCount="4" stopTime="0.00" timeLoss="195.78" rerouteNo="0" devices="vehroute_56 tripinfo_56 fcd_56" vType="DEFAULT_VEHTYPE" speedFactor="0.90" vaporized=""/>