<?xml version="1.0" encoding="UTF-8"?>

<!-- generated on 2025-03-21 17:17:28 by Eclipse SUMO sumo Version 1.21.0
<sumoConfiguration xmlns:xsi="http://www.w3.org/2001/XMLSchema-instance" xsi:noNamespaceSchemaLocation="http://sumo.dlr.de/xsd/sumoConfiguration.xsd">

    <input>
        <net-file value="${STATICPATH}/joined_lanes.net.xml"/>
        <route-files value="${SIMULATIONPATH}/generatedRoutes.rou.xml"/>
        <additional-files value="${STATICPATH}/detectors.add.xml,${STATICPATH}/joined_vtypes.add.xml,${STATICPATH}/joined_tls.add.xml"/>
    </input>

    <output>
        <fcd-output value="${SIMULATIONPATH}/fcd.xml"/>
        <queue-output value="${SIMULATIONPATH}/queue.xml"/>
        <summary-output value="${SIMULATIONPATH}/summary.xml"/>
        <tripinfo-output value="${SIMULATIONPATH}/tripinfos.xml"/>
        <vehroute-output value="${SIMULATIONPATH}/vehroute.xml"/>
        <save-state.prefix value="configs\state"/>
    </output>

    <processing>
        <ignore-junction-blocker value="1"/>
        <ignore-route-errors value="true"/>
        <time-to-teleport value="-1"/>
    </processing>

    <report>
        <log value="C:/Users/fabio/Desktop/sumo_log.txt"/>
        <no-step-log value="true"/>
    </report>

    <emissions>
        <phemlight-path value="configs\./PHEMlight/"/>
    </emissions>

    <traci_server>
        <remote-port value="60016"/>
    </traci_server>

</sumoConfiguration>
-->

<fcd-export xmlns:xsi="http://www.w3.org/2001/XMLSchema-instance" xsi:noNamespaceSchemaLocation="http://sumo.dlr.de/xsd/fcd_file.xsd">
    <timestep time="0.00"/>
    <timestep time="1.00"/>
    <timestep time="2.00"/>
    <timestep time="3.00"/>
    <timestep time="4.00"/>
    <timestep time="5.00"/>
    <timestep time="6.00"/>
    <timestep time="7.00"/>
    <timestep time="8.00"/>
    <timestep time="9.00"/>
    <timestep time="10.00"/>
    <timestep time="11.00"/>
    <timestep time="12.00"/>
    <timestep time="13.00"/>
    <timestep time="14.00"/>
    <timestep time="15.00"/>
    <timestep time="16.00"/>
    <timestep time="17.00"/>
    <timestep time="18.00"/>
    <timestep time="19.00"/>
    <timestep time="20.00"/>
    <timestep time="21.00"/>
    <timestep time="22.00"/>
    <timestep time="23.00"/>
    <timestep time="24.00"/>
    <timestep time="25.00"/>
    <timestep time="26.00"/>
    <timestep time="27.00"/>
    <timestep time="28.00"/>
    <timestep time="29.00"/>
    <timestep time="30.00"/>
    <timestep time="31.00"/>
    <timestep time="32.00"/>
    <timestep time="33.00"/>
    <timestep time="34.00"/>
    <timestep time="35.00"/>
    <timestep time="36.00"/>
    <timestep time="37.00"/>
    <timestep time="38.00">
        <vehicle id="0" x="1912.67" y="601.44" angle="345.09" type="DEFAULT_VEHTYPE" speed="0.00" pos="5.10" lane="a201_0" slope="0.00"/>
    </timestep>
    <timestep time="39.00">
        <vehicle id="0" x="1912.10" y="603.56" angle="345.09" type="DEFAULT_VEHTYPE" speed="2.20" pos="7.30" lane="a201_0" slope="0.00"/>
    </timestep>
    <timestep time="40.00">
        <vehicle id="0" x="1911.02" y="607.63" angle="345.09" type="DEFAULT_VEHTYPE" speed="4.22" pos="11.52" lane="a201_0" slope="0.00"/>
    </timestep>
    <timestep time="41.00">
        <vehicle id="0" x="1909.27" y="614.21" angle="345.09" type="DEFAULT_VEHTYPE" speed="6.80" pos="18.32" lane="a201_0" slope="0.00"/>
    </timestep>
    <timestep time="42.00">
        <vehicle id="0" x="1906.96" y="622.88" angle="345.09" type="DEFAULT_VEHTYPE" speed="8.98" pos="27.30" lane="a201_0" slope="0.00"/>
    </timestep>
    <timestep time="43.00">
        <vehicle id="0" x="1901.05" y="632.62" angle="345.09" type="DEFAULT_VEHTYPE" speed="10.92" pos="38.22" lane="a201_1" slope="0.00"/>
    </timestep>
    <timestep time="44.00">
        <vehicle id="0" x="1897.89" y="644.50" angle="345.09" type="DEFAULT_VEHTYPE" speed="12.30" pos="50.52" lane="a201_1" slope="0.00"/>
    </timestep>
    <timestep time="45.00">
        <vehicle id="0" x="1894.12" y="658.65" angle="345.09" type="DEFAULT_VEHTYPE" speed="14.64" pos="65.16" lane="a201_1" slope="0.00"/>
    </timestep>
    <timestep time="46.00">
        <vehicle id="0" x="1890.40" y="672.64" angle="345.09" type="DEFAULT_VEHTYPE" speed="14.47" pos="79.63" lane="a201_1" slope="0.00"/>
    </timestep>
    <timestep time="47.00">
        <vehicle id="0" x="1886.71" y="686.49" angle="345.09" type="DEFAULT_VEHTYPE" speed="14.34" pos="93.96" lane="a201_1" slope="0.00"/>
    </timestep>
    <timestep time="48.00">
        <vehicle id="0" x="1883.23" y="699.52" angle="345.09" type="DEFAULT_VEHTYPE" speed="13.49" pos="107.46" lane="a201_1" slope="0.00"/>
    </timestep>
    <timestep time="49.00">
        <vehicle id="0" x="1879.51" y="713.49" angle="345.09" type="DEFAULT_VEHTYPE" speed="14.46" pos="121.91" lane="a201_1" slope="0.00"/>
    </timestep>
    <timestep time="50.00">
        <vehicle id="0" x="1875.96" y="726.85" angle="345.09" type="DEFAULT_VEHTYPE" speed="13.82" pos="135.74" lane="a201_1" slope="0.00"/>
    </timestep>
    <timestep time="51.00">
        <vehicle id="0" x="1872.32" y="740.50" angle="345.09" type="DEFAULT_VEHTYPE" speed="14.12" pos="149.86" lane="a201_1" slope="0.00"/>
    </timestep>
    <timestep time="52.00">
        <vehicle id="0" x="1868.94" y="753.96" angle="345.98" type="DEFAULT_VEHTYPE" speed="13.87" pos="163.73" lane="a201_1" slope="0.00"/>
    </timestep>
    <timestep time="53.00">
        <vehicle id="0" x="1865.39" y="768.19" angle="345.98" type="DEFAULT_VEHTYPE" speed="14.67" pos="178.40" lane="a201_1" slope="0.00"/>
    </timestep>
    <timestep time="54.00">
        <vehicle id="0" x="1861.92" y="782.09" angle="345.98" type="DEFAULT_VEHTYPE" speed="14.33" pos="192.73" lane="a201_1" slope="0.00"/>
    </timestep>
    <timestep time="55.00">
        <vehicle id="0" x="1858.52" y="795.69" angle="345.98" type="DEFAULT_VEHTYPE" speed="14.02" pos="206.75" lane="a201_1" slope="0.00"/>
    </timestep>
    <timestep time="56.00">
        <vehicle id="0" x="1855.17" y="809.12" angle="346.01" type="DEFAULT_VEHTYPE" speed="13.84" pos="220.59" lane="a201_1" slope="0.00"/>
    </timestep>
    <timestep time="57.00">
        <vehicle id="0" x="1851.81" y="823.19" angle="346.24" type="DEFAULT_VEHTYPE" speed="14.47" pos="3.69" lane=":a1c_1_1" slope="0.00"/>
    </timestep>
    <timestep time="58.00">
        <vehicle id="0" x="1848.48" y="836.44" angle="345.59" type="DEFAULT_VEHTYPE" speed="13.67" pos="4.40" lane="a201c_1" slope="0.00"/>
    </timestep>
    <timestep time="59.00">
        <vehicle id="0" x="1845.40" y="849.88" angle="347.71" type="DEFAULT_VEHTYPE" speed="13.79" pos="10.03" lane=":a1_0_1" slope="0.00"/>
    </timestep>
    <timestep time="60.00">
        <vehicle id="0" x="1842.37" y="863.10" angle="346.88" type="DEFAULT_VEHTYPE" speed="13.56" pos="10.44" lane="a204a[0]_1" slope="0.00"/>
    </timestep>
    <timestep time="61.00">
        <vehicle id="0" x="1839.18" y="876.77" angle="346.88" type="DEFAULT_VEHTYPE" speed="14.04" pos="24.48" lane="a204a[0]_1" slope="0.00"/>
    </timestep>
    <timestep time="62.00">
        <vehicle id="0" x="1836.03" y="890.25" angle="346.70" type="DEFAULT_VEHTYPE" speed="13.85" pos="38.33" lane="a204a[0]_1" slope="0.00"/>
    </timestep>
    <timestep time="63.00">
        <vehicle id="0" x="1832.74" y="903.99" angle="346.55" type="DEFAULT_VEHTYPE" speed="14.13" pos="52.45" lane="a204a[0]_1" slope="0.00"/>
    </timestep>
    <timestep time="64.00">
        <vehicle id="0" x="1829.35" y="918.16" angle="346.55" type="DEFAULT_VEHTYPE" speed="14.56" pos="67.02" lane="a204a[0]_1" slope="0.00"/>
    </timestep>
    <timestep time="65.00">
        <vehicle id="0" x="1826.02" y="932.09" angle="346.55" type="DEFAULT_VEHTYPE" speed="14.32" pos="81.34" lane="a204a[0]_1" slope="0.00"/>
    </timestep>
    <timestep time="66.00">
        <vehicle id="0" x="1822.76" y="945.71" angle="346.55" type="DEFAULT_VEHTYPE" speed="14.01" pos="95.35" lane="a204a[0]_1" slope="0.00"/>
    </timestep>
    <timestep time="67.00">
        <vehicle id="0" x="1819.41" y="959.70" angle="346.55" type="DEFAULT_VEHTYPE" speed="14.39" pos="109.74" lane="a204a[0]_1" slope="0.00"/>
    </timestep>
    <timestep time="68.00">
        <vehicle id="0" x="1816.15" y="973.33" angle="346.55" type="DEFAULT_VEHTYPE" speed="14.01" pos="123.75" lane="a204a[0]_1" slope="0.00"/>
    </timestep>
    <timestep time="69.00">
        <vehicle id="0" x="1812.74" y="987.57" angle="346.55" type="DEFAULT_VEHTYPE" speed="14.65" pos="138.40" lane="a204a[0]_1" slope="0.00"/>
    </timestep>
    <timestep time="70.00">
        <vehicle id="0" x="1809.52" y="1001.05" angle="346.55" type="DEFAULT_VEHTYPE" speed="13.86" pos="152.26" lane="a204a[0]_1" slope="0.00"/>
    </timestep>
    <timestep time="71.00">
        <vehicle id="0" x="1806.29" y="1014.55" angle="346.55" type="DEFAULT_VEHTYPE" speed="13.88" pos="166.14" lane="a204a[0]_1" slope="0.00"/>
    </timestep>
    <timestep time="72.00">
        <vehicle id="0" x="1802.96" y="1028.37" angle="346.28" type="DEFAULT_VEHTYPE" speed="14.22" pos="180.35" lane="a204a[0]_1" slope="0.00"/>
    </timestep>
    <timestep time="73.00">
        <vehicle id="0" x="1803.03" y="1040.49" angle="11.34" type="DEFAULT_VEHTYPE" speed="12.29" pos="2.34" lane=":a204c_3_0" slope="0.00"/>
    </timestep>
    <timestep time="74.00">
        <vehicle id="0" x="1802.20" y="1052.86" angle="344.37" type="DEFAULT_VEHTYPE" speed="12.63" pos="14.97" lane=":a204c_3_0" slope="0.00"/>
    </timestep>
    <timestep time="75.00">
        <vehicle id="0" x="1794.79" y="1062.82" angle="321.13" type="DEFAULT_VEHTYPE" speed="12.44" pos="9.19" lane="a124_0" slope="0.00"/>
    </timestep>
    <timestep time="76.00">
        <vehicle id="0" x="1786.06" y="1073.65" angle="321.13" type="DEFAULT_VEHTYPE" speed="13.91" pos="23.11" lane="a124_0" slope="0.00"/>
    </timestep>
    <timestep time="77.00">
        <vehicle id="0" x="1777.02" y="1084.98" angle="319.60" type="DEFAULT_VEHTYPE" speed="14.10" pos="10.97" lane=":a78_6_0" slope="0.00"/>
    </timestep>
    <timestep time="78.00">
        <vehicle id="0" x="1764.85" y="1091.87" angle="295.59" type="DEFAULT_VEHTYPE" speed="13.77" pos="6.33" lane="b12_1" slope="0.00"/>
    </timestep>
    <timestep time="79.00">
        <vehicle id="0" x="1752.23" y="1097.92" angle="295.59" type="DEFAULT_VEHTYPE" speed="13.99" pos="20.32" lane="b12_1" slope="0.00"/>
    </timestep>
    <timestep time="80.00">
        <vehicle id="0" x="1739.93" y="1103.81" angle="295.59" type="DEFAULT_VEHTYPE" speed="13.64" pos="33.96" lane="b12_1" slope="0.00"/>
    </timestep>
    <timestep time="81.00">
        <vehicle id="0" x="1727.15" y="1109.93" angle="295.59" type="DEFAULT_VEHTYPE" speed="14.17" pos="48.13" lane="b12_1" slope="0.00"/>
    </timestep>
    <timestep time="82.00">
        <vehicle id="0" x="1714.31" y="1116.08" angle="295.59" type="DEFAULT_VEHTYPE" speed="14.24" pos="62.37" lane="b12_1" slope="0.00"/>
    </timestep>
    <timestep time="83.00">
        <vehicle id="0" x="1702.12" y="1121.92" angle="295.59" type="DEFAULT_VEHTYPE" speed="13.52" pos="75.88" lane="b12_1" slope="0.00"/>
    </timestep>
    <timestep time="84.00">
        <vehicle id="0" x="1689.35" y="1128.04" angle="295.59" type="DEFAULT_VEHTYPE" speed="14.16" pos="90.05" lane="b12_1" slope="0.00"/>
    </timestep>
    <timestep time="85.00">
        <vehicle id="0" x="1676.40" y="1134.24" angle="295.59" type="DEFAULT_VEHTYPE" speed="14.36" pos="104.40" lane="b12_1" slope="0.00"/>
    </timestep>
    <timestep time="86.00">
        <vehicle id="0" x="1664.24" y="1140.06" angle="295.59" type="DEFAULT_VEHTYPE" speed="13.48" pos="117.89" lane="b12_1" slope="0.00"/>
    </timestep>
    <timestep time="87.00">
        <vehicle id="0" x="1651.07" y="1146.37" angle="295.59" type="DEFAULT_VEHTYPE" speed="14.60" pos="132.49" lane="b12_1" slope="0.00"/>
    </timestep>
    <timestep time="88.00">
        <vehicle id="0" x="1636.81" y="1149.65" angle="295.59" type="DEFAULT_VEHTYPE" speed="14.30" pos="146.79" lane="b12_2" slope="0.00"/>
    </timestep>
    <timestep time="89.00">
        <vehicle id="0" x="1624.30" y="1155.65" angle="295.59" type="DEFAULT_VEHTYPE" speed="13.88" pos="160.67" lane="b12_2" slope="0.00"/>
    </timestep>
    <timestep time="90.00">
        <vehicle id="0" x="1611.36" y="1161.84" angle="295.59" type="DEFAULT_VEHTYPE" speed="14.34" pos="175.01" lane="b12_2" slope="0.00"/>
    </timestep>
    <timestep time="91.00">
        <vehicle id="0" x="1598.92" y="1167.80" angle="295.59" type="DEFAULT_VEHTYPE" speed="13.80" pos="188.81" lane="b12_2" slope="0.00"/>
    </timestep>
    <timestep time="92.00">
        <vehicle id="0" x="1586.13" y="1173.93" angle="295.59" type="DEFAULT_VEHTYPE" speed="14.18" pos="202.99" lane="b12_2" slope="0.00"/>
    </timestep>
    <timestep time="93.00">
        <vehicle id="0" x="1573.58" y="1179.94" angle="295.59" type="DEFAULT_VEHTYPE" speed="13.91" pos="216.91" lane="b12_2" slope="0.00"/>
    </timestep>
    <timestep time="94.00">
        <vehicle id="0" x="1561.33" y="1185.81" angle="295.59" type="DEFAULT_VEHTYPE" speed="13.59" pos="230.50" lane="b12_2" slope="0.00"/>
    </timestep>
    <timestep time="95.00">
        <vehicle id="0" x="1548.80" y="1191.81" angle="295.59" type="DEFAULT_VEHTYPE" speed="13.90" pos="244.39" lane="b12_2" slope="0.00"/>
    </timestep>
    <timestep time="96.00">
        <vehicle id="0" x="1536.10" y="1197.89" angle="295.59" type="DEFAULT_VEHTYPE" speed="14.08" pos="258.47" lane="b12_2" slope="0.00"/>
    </timestep>
    <timestep time="97.00">
        <vehicle id="0" x="1523.64" y="1203.86" angle="295.59" type="DEFAULT_VEHTYPE" speed="13.81" pos="272.29" lane="b12_2" slope="0.00"/>
    </timestep>
    <timestep time="98.00">
        <vehicle id="0" x="1511.05" y="1209.89" angle="295.59" type="DEFAULT_VEHTYPE" speed="13.96" pos="286.25" lane="b12_2" slope="0.00"/>
    </timestep>
    <timestep time="99.00">
        <vehicle id="0" x="1497.88" y="1216.20" angle="295.59" type="DEFAULT_VEHTYPE" speed="14.61" pos="300.86" lane="b12_2" slope="0.00"/>
    </timestep>
    <timestep time="100.00">
        <vehicle id="0" x="1485.19" y="1222.27" angle="295.59" type="DEFAULT_VEHTYPE" speed="14.07" pos="314.93" lane="b12_2" slope="0.00"/>
    </timestep>
    <timestep time="101.00">
        <vehicle id="0" x="1471.93" y="1228.63" angle="295.59" type="DEFAULT_VEHTYPE" speed="14.71" pos="329.64" lane="b12_2" slope="0.00"/>
    </timestep>
    <timestep time="102.00">
        <vehicle id="0" x="1458.78" y="1234.92" angle="295.59" type="DEFAULT_VEHTYPE" speed="14.58" pos="344.21" lane="b12_2" slope="0.00"/>
    </timestep>
    <timestep time="103.00">
        <vehicle id="0" x="1445.51" y="1241.28" angle="295.59" type="DEFAULT_VEHTYPE" speed="14.72" pos="358.93" lane="b12_2" slope="0.00"/>
    </timestep>
    <timestep time="104.00">
        <vehicle id="0" x="1433.40" y="1247.08" angle="295.59" type="DEFAULT_VEHTYPE" speed="13.43" pos="372.37" lane="b12_2" slope="0.00"/>
    </timestep>
    <timestep time="105.00">
        <vehicle id="0" x="1420.59" y="1253.22" angle="295.59" type="DEFAULT_VEHTYPE" speed="14.21" pos="386.57" lane="b12_2" slope="0.00"/>
    </timestep>
    <timestep time="106.00">
        <vehicle id="0" x="1408.09" y="1259.21" angle="295.59" type="DEFAULT_VEHTYPE" speed="13.86" pos="400.43" lane="b12_2" slope="0.00"/>
    </timestep>
    <timestep time="107.00">
        <vehicle id="0" x="1395.96" y="1265.02" angle="295.59" type="DEFAULT_VEHTYPE" speed="13.45" pos="413.89" lane="b12_2" slope="0.00"/>
    </timestep>
    <timestep time="108.00">
        <vehicle id="0" x="1382.95" y="1271.25" angle="295.59" type="DEFAULT_VEHTYPE" speed="14.42" pos="428.31" lane="b12_2" slope="0.00"/>
    </timestep>
    <timestep time="109.00">
        <vehicle id="0" x="1373.75" y="1275.65" angle="295.59" type="DEFAULT_VEHTYPE" speed="10.21" pos="438.51" lane="b12_2" slope="0.00"/>
    </timestep>
    <timestep time="110.00">
        <vehicle id="0" x="1368.60" y="1278.12" angle="295.59" type="DEFAULT_VEHTYPE" speed="5.71" pos="444.22" lane="b12_2" slope="0.00"/>
    </timestep>
    <timestep time="111.00">
        <vehicle id="0" x="1367.20" y="1278.79" angle="295.59" type="DEFAULT_VEHTYPE" speed="1.56" pos="445.78" lane="b12_2" slope="0.00"/>
    </timestep>
    <timestep time="112.00">
        <vehicle id="0" x="1367.08" y="1278.85" angle="295.59" type="DEFAULT_VEHTYPE" speed="0.13" pos="445.91" lane="b12_2" slope="0.00"/>
    </timestep>
    <timestep time="113.00">
        <vehicle id="0" x="1367.07" y="1278.86" angle="295.59" type="DEFAULT_VEHTYPE" speed="0.02" pos="445.92" lane="b12_2" slope="0.00"/>
    </timestep>
    <timestep time="114.00">
        <vehicle id="0" x="1367.06" y="1278.86" angle="295.59" type="DEFAULT_VEHTYPE" speed="0.01" pos="445.93" lane="b12_2" slope="0.00"/>
    </timestep>
    <timestep time="115.00">
        <vehicle id="0" x="1367.06" y="1278.86" angle="295.59" type="DEFAULT_VEHTYPE" speed="0.00" pos="445.93" lane="b12_2" slope="0.00"/>
    </timestep>
    <timestep time="116.00">
        <vehicle id="0" x="1367.06" y="1278.86" angle="295.59" type="DEFAULT_VEHTYPE" speed="0.00" pos="445.93" lane="b12_2" slope="0.00"/>
    </timestep>
    <timestep time="117.00">
        <vehicle id="0" x="1367.06" y="1278.86" angle="295.59" type="DEFAULT_VEHTYPE" speed="0.00" pos="445.93" lane="b12_2" slope="0.00"/>
    </timestep>
    <timestep time="118.00">
        <vehicle id="0" x="1367.06" y="1278.86" angle="295.59" type="DEFAULT_VEHTYPE" speed="0.00" pos="445.93" lane="b12_2" slope="0.00"/>
    </timestep>
    <timestep time="119.00">
        <vehicle id="0" x="1364.73" y="1279.80" angle="293.78" type="DEFAULT_VEHTYPE" speed="2.52" pos="1.52" lane=":b15_5_0" slope="0.00"/>
    </timestep>
    <timestep time="120.00">
        <vehicle id="0" x="1360.70" y="1281.12" angle="288.35" type="DEFAULT_VEHTYPE" speed="4.25" pos="0.36" lane=":b15_12_0" slope="0.00"/>
    </timestep>
    <timestep time="121.00">
        <vehicle id="0" x="1354.81" y="1280.21" angle="258.77" type="DEFAULT_VEHTYPE" speed="6.13" pos="6.49" lane=":b15_12_0" slope="0.00"/>
    </timestep>
    <timestep time="122.00">
        <vehicle id="0" x="1350.30" y="1273.77" angle="208.26" type="DEFAULT_VEHTYPE" speed="8.07" pos="2.86" lane="b50[0]_0" slope="0.00"/>
    </timestep>
    <timestep time="123.00">
        <vehicle id="0" x="1346.46" y="1264.96" angle="203.51" type="DEFAULT_VEHTYPE" speed="9.61" pos="12.48" lane="b50[0]_0" slope="0.00"/>
    </timestep>
    <timestep time="124.00">
        <vehicle id="0" x="1342.07" y="1254.86" angle="203.51" type="DEFAULT_VEHTYPE" speed="11.02" pos="23.50" lane="b50[0]_0" slope="0.00"/>
    </timestep>
    <timestep time="125.00">
        <vehicle id="0" x="1336.86" y="1242.88" angle="203.51" type="DEFAULT_VEHTYPE" speed="13.06" pos="36.55" lane="b50[0]_0" slope="0.00"/>
    </timestep>
    <timestep time="126.00">
        <vehicle id="0" x="1331.40" y="1230.33" angle="203.51" type="DEFAULT_VEHTYPE" speed="13.69" pos="50.24" lane="b50[0]_0" slope="0.00"/>
    </timestep>
    <timestep time="127.00">
        <vehicle id="0" x="1325.88" y="1217.63" angle="203.51" type="DEFAULT_VEHTYPE" speed="13.85" pos="64.09" lane="b50[0]_0" slope="0.00"/>
    </timestep>
    <timestep time="128.00">
        <vehicle id="0" x="1320.35" y="1204.92" angle="203.51" type="DEFAULT_VEHTYPE" speed="13.86" pos="77.95" lane="b50[0]_0" slope="0.00"/>
    </timestep>
    <timestep time="129.00">
        <vehicle id="0" x="1314.59" y="1191.69" angle="203.51" type="DEFAULT_VEHTYPE" speed="14.42" pos="92.38" lane="b50[0]_0" slope="0.00"/>
        <vehicle id="1" x="1242.68" y="624.36" angle="80.14" type="DEFAULT_VEHTYPE" speed="0.00" pos="5.10" lane="a20001+87[1][0]_0" slope="0.00"/>
    </timestep>
    <timestep time="130.00">
        <vehicle id="0" x="1308.90" y="1178.49" angle="203.27" type="DEFAULT_VEHTYPE" speed="14.38" pos="1.88" lane="b50[1]_0" slope="0.00"/>
        <vehicle id="1" x="1243.45" y="627.74" angle="80.14" type="DEFAULT_VEHTYPE" speed="1.34" pos="6.44" lane="a20001+87[1][0]_1" slope="0.00"/>
    </timestep>
    <timestep time="131.00">
        <vehicle id="0" x="1303.24" y="1165.28" angle="203.20" type="DEFAULT_VEHTYPE" speed="14.37" pos="16.25" lane="b50[1]_0" slope="0.00"/>
        <vehicle id="1" x="1246.46" y="628.27" angle="80.14" type="DEFAULT_VEHTYPE" speed="3.06" pos="9.50" lane="a20001+87[1][0]_1" slope="0.00"/>
    </timestep>
    <timestep time="132.00">
        <vehicle id="0" x="1297.73" y="1152.42" angle="203.20" type="DEFAULT_VEHTYPE" speed="13.99" pos="30.23" lane="b50[1]_0" slope="0.00"/>
        <vehicle id="1" x="1251.63" y="629.16" angle="80.14" type="DEFAULT_VEHTYPE" speed="5.25" pos="14.75" lane="a20001+87[1][0]_1" slope="0.00"/>
    </timestep>
    <timestep time="133.00">
        <vehicle id="0" x="1292.19" y="1139.48" angle="203.20" type="DEFAULT_VEHTYPE" speed="14.07" pos="44.31" lane="b50[1]_0" slope="0.00"/>
        <vehicle id="1" x="1258.23" y="630.31" angle="80.14" type="DEFAULT_VEHTYPE" speed="6.70" pos="21.45" lane="a20001+87[1][0]_1" slope="0.00"/>
    </timestep>
    <timestep time="134.00">
        <vehicle id="0" x="1286.39" y="1125.96" angle="203.20" type="DEFAULT_VEHTYPE" speed="14.71" pos="59.02" lane="b50[1]_0" slope="0.00"/>
        <vehicle id="1" x="1266.23" y="631.70" angle="80.14" type="DEFAULT_VEHTYPE" speed="8.12" pos="0.12" lane=":a60_0_0" slope="0.00"/>
    </timestep>
    <timestep time="135.00">
        <vehicle id="0" x="1281.00" y="1113.39" angle="203.20" type="DEFAULT_VEHTYPE" speed="13.67" pos="72.69" lane="b50[1]_0" slope="0.00"/>
        <vehicle id="1" x="1276.25" y="633.50" angle="79.68" type="DEFAULT_VEHTYPE" speed="10.18" pos="1.19" lane=":a61_4_0" slope="0.00"/>
    </timestep>
    <timestep time="136.00">
        <vehicle id="0" x="1275.68" y="1100.96" angle="203.16" type="DEFAULT_VEHTYPE" speed="13.52" pos="6.18" lane=":b40_0_0" slope="0.00"/>
        <vehicle id="1" x="1287.57" y="635.70" angle="78.89" type="DEFAULT_VEHTYPE" speed="11.53" pos="1.06" lane="am90_0" slope="0.00"/>
    </timestep>
    <timestep time="137.00">
        <vehicle id="0" x="1269.99" y="1087.66" angle="203.17" type="DEFAULT_VEHTYPE" speed="14.46" pos="9.58" lane="b50[1]a_0" slope="0.00"/>
        <vehicle id="1" x="1299.50" y="638.24" angle="78.00" type="DEFAULT_VEHTYPE" speed="12.20" pos="13.26" lane="am90_0" slope="0.00"/>
        <vehicle id="2" x="866.92" y="75.72" angle="288.17" type="DEFAULT_VEHTYPE" speed="0.00" pos="5.10" lane="a212_0" slope="0.00"/>
    </timestep>
    <timestep time="138.00">
        <vehicle id="0" x="1264.60" y="1075.07" angle="203.17" type="DEFAULT_VEHTYPE" speed="13.70" pos="23.28" lane="b50[1]a_0" slope="0.00"/>
        <vehicle id="1" x="1307.03" y="639.83" angle="78.00" type="DEFAULT_VEHTYPE" speed="7.70" pos="20.95" lane="am90_0" slope="0.00"/>
        <vehicle id="2" x="865.34" y="76.24" angle="288.17" type="DEFAULT_VEHTYPE" speed="1.67" pos="6.77" lane="a212_0" slope="0.00"/>
    </timestep>
    <timestep time="139.00">
        <vehicle id="0" x="1258.89" y="1061.74" angle="203.17" type="DEFAULT_VEHTYPE" speed="14.50" pos="37.78" lane="b50[1]a_0" slope="0.00"/>
        <vehicle id="1" x="1310.34" y="640.80" angle="75.10" type="DEFAULT_VEHTYPE" speed="3.47" pos="0.99" lane=":a62_4_0" slope="0.00"/>
        <vehicle id="2" x="861.96" y="77.35" angle="288.17" type="DEFAULT_VEHTYPE" speed="3.56" pos="10.32" lane="a212_0" slope="0.00"/>
    </timestep>
    <timestep time="140.00">
        <vehicle id="0" x="1253.49" y="1049.11" angle="203.17" type="DEFAULT_VEHTYPE" speed="13.74" pos="51.52" lane="b50[1]a_0" slope="0.00"/>
        <vehicle id="1" x="1313.10" y="644.93" angle="32.66" type="DEFAULT_VEHTYPE" speed="5.19" pos="4.00" lane=":a62_7_0" slope="0.00"/>
        <vehicle id="2" x="856.82" y="79.03" angle="288.17" type="DEFAULT_VEHTYPE" speed="5.41" pos="15.73" lane="a212_0" slope="0.00"/>
    </timestep>
    <timestep time="141.00">
        <vehicle id="0" x="1247.83" y="1035.90" angle="203.17" type="DEFAULT_VEHTYPE" speed="14.37" pos="65.89" lane="b50[1]a_0" slope="0.00"/>
        <vehicle id="1" x="1313.64" y="651.25" angle="2.69" type="DEFAULT_VEHTYPE" speed="6.38" pos="1.63" lane="a171_0" slope="0.00"/>
        <vehicle id="2" x="850.29" y="81.18" angle="288.17" type="DEFAULT_VEHTYPE" speed="6.88" pos="22.61" lane="a212_0" slope="0.00"/>
    </timestep>
    <timestep time="142.00">
        <vehicle id="0" x="1242.19" y="1022.72" angle="203.17" type="DEFAULT_VEHTYPE" speed="14.34" pos="80.22" lane="b50[1]a_0" slope="0.00"/>
        <vehicle id="1" x="1313.90" y="659.25" angle="2.95" type="DEFAULT_VEHTYPE" speed="8.00" pos="9.64" lane="a171_0" slope="0.00"/>
        <vehicle id="2" x="841.39" y="84.10" angle="288.17" type="DEFAULT_VEHTYPE" speed="9.36" pos="31.97" lane="a212_0" slope="0.00"/>
    </timestep>
    <timestep time="143.00">
        <vehicle id="0" x="1236.58" y="1009.60" angle="203.17" type="DEFAULT_VEHTYPE" speed="14.27" pos="94.49" lane="b50[1]a_0" slope="0.00"/>
        <vehicle id="1" x="1314.41" y="669.19" angle="2.95" type="DEFAULT_VEHTYPE" speed="9.95" pos="19.59" lane="a171_0" slope="0.00"/>
        <vehicle id="2" x="830.69" y="87.61" angle="288.17" type="DEFAULT_VEHTYPE" speed="11.26" pos="43.24" lane="a212_0" slope="0.00"/>
    </timestep>
    <timestep time="144.00">
        <vehicle id="0" x="1231.19" y="997.03" angle="203.17" type="DEFAULT_VEHTYPE" speed="13.68" pos="108.18" lane="b50[1]a_0" slope="0.00"/>
        <vehicle id="1" x="1315.03" y="681.24" angle="2.95" type="DEFAULT_VEHTYPE" speed="12.07" pos="31.66" lane="a171_0" slope="0.00"/>
        <vehicle id="2" x="817.52" y="91.93" angle="288.17" type="DEFAULT_VEHTYPE" speed="13.86" pos="57.09" lane="a212_0" slope="0.00"/>
    </timestep>
    <timestep time="145.00">
        <vehicle id="0" x="1225.75" y="984.31" angle="203.17" type="DEFAULT_VEHTYPE" speed="13.83" pos="122.01" lane="b50[1]a_0" slope="0.00"/>
        <vehicle id="1" x="1315.66" y="693.36" angle="2.95" type="DEFAULT_VEHTYPE" speed="12.13" pos="43.79" lane="a171_0" slope="0.00"/>
        <vehicle id="2" x="804.27" y="96.28" angle="288.17" type="DEFAULT_VEHTYPE" speed="13.95" pos="71.04" lane="a212_0" slope="0.00"/>
    </timestep>
    <timestep time="146.00">
        <vehicle id="0" x="1220.46" y="971.95" angle="203.17" type="DEFAULT_VEHTYPE" speed="13.45" pos="135.46" lane="b50[1]a_0" slope="0.00"/>
        <vehicle id="1" x="1316.28" y="705.45" angle="2.95" type="DEFAULT_VEHTYPE" speed="12.11" pos="55.90" lane="a171_0" slope="0.00"/>
        <vehicle id="2" x="791.86" y="100.35" angle="288.17" type="DEFAULT_VEHTYPE" speed="13.06" pos="84.10" lane="a212_0" slope="0.00"/>
    </timestep>
    <timestep time="147.00">
        <vehicle id="0" x="1214.80" y="958.73" angle="203.17" type="DEFAULT_VEHTYPE" speed="14.38" pos="149.84" lane="b50[1]a_0" slope="0.00"/>
        <vehicle id="1" x="1316.94" y="718.19" angle="2.95" type="DEFAULT_VEHTYPE" speed="12.75" pos="68.65" lane="a171_0" slope="0.00"/>
        <vehicle id="2" x="778.94" y="104.59" angle="288.17" type="DEFAULT_VEHTYPE" speed="13.60" pos="97.70" lane="a212_0" slope="0.00"/>
    </timestep>
    <timestep time="148.00">
        <vehicle id="0" x="1209.36" y="946.01" angle="203.17" type="DEFAULT_VEHTYPE" speed="13.83" pos="163.67" lane="b50[1]a_0" slope="0.00"/>
        <vehicle id="1" x="1317.56" y="730.27" angle="2.95" type="DEFAULT_VEHTYPE" speed="12.10" pos="80.75" lane="a171_0" slope="0.00"/>
        <vehicle id="2" x="766.23" y="108.76" angle="288.17" type="DEFAULT_VEHTYPE" speed="13.37" pos="111.07" lane="a212_0" slope="0.00"/>
    </timestep>
    <timestep time="149.00">
        <vehicle id="0" x="1204.82" y="935.42" angle="203.17" type="DEFAULT_VEHTYPE" speed="11.52" pos="175.19" lane="b50[1]a_0" slope="0.00"/>
        <vehicle id="1" x="1318.16" y="741.99" angle="2.95" type="DEFAULT_VEHTYPE" speed="11.73" pos="92.48" lane="a171_0" slope="0.00"/>
        <vehicle id="2" x="753.63" y="112.90" angle="288.17" type="DEFAULT_VEHTYPE" speed="13.27" pos="124.34" lane="a212_0" slope="0.00"/>
    </timestep>
    <timestep time="150.00">
        <vehicle id="0" x="1202.06" y="928.97" angle="203.17" type="DEFAULT_VEHTYPE" speed="7.02" pos="182.21" lane="b50[1]a_0" slope="0.00"/>
        <vehicle id="1" x="1318.83" y="754.86" angle="2.95" type="DEFAULT_VEHTYPE" speed="12.89" pos="105.37" lane="a171_0" slope="0.00"/>
        <vehicle id="2" x="740.46" y="117.19" angle="287.93" type="DEFAULT_VEHTYPE" speed="13.85" pos="4.73" lane=":a7_2_0" slope="0.00"/>
    </timestep>
    <timestep time="151.00">
        <vehicle id="0" x="1198.56" y="921.32" angle="205.39" type="DEFAULT_VEHTYPE" speed="8.42" pos="5.41" lane=":b39_1_0" slope="0.00"/>
        <vehicle id="1" x="1319.43" y="766.59" angle="2.95" type="DEFAULT_VEHTYPE" speed="11.74" pos="117.11" lane="a171_0" slope="0.00"/>
        <vehicle id="2" x="727.14" y="121.48" angle="287.72" type="DEFAULT_VEHTYPE" speed="13.99" pos="7.54" lane="a10_0" slope="0.00"/>
    </timestep>
    <timestep time="152.00">
        <vehicle id="0" x="1194.18" y="912.09" angle="205.39" type="DEFAULT_VEHTYPE" speed="10.21" pos="15.62" lane=":b39_1_0" slope="0.00"/>
        <vehicle id="1" x="1320.09" y="779.31" angle="2.95" type="DEFAULT_VEHTYPE" speed="12.73" pos="129.85" lane="a171_0" slope="0.00"/>
        <vehicle id="2" x="714.87" y="125.38" angle="287.67" type="DEFAULT_VEHTYPE" speed="12.88" pos="20.41" lane="a10_0" slope="0.00"/>
    </timestep>
    <timestep time="153.00">
        <vehicle id="0" x="1189.04" y="900.91" angle="204.11" type="DEFAULT_VEHTYPE" speed="12.31" pos="6.64" lane="a181_0" slope="0.00"/>
        <vehicle id="1" x="1320.71" y="791.48" angle="2.95" type="DEFAULT_VEHTYPE" speed="12.19" pos="142.04" lane="a171_0" slope="0.00"/>