<?xml version="1.0" encoding="UTF-8"?>

<!-- generated on 2025-03-21 17:17:28 by Eclipse SUMO sumo Version 1.21.0
<sumoConfiguration xmlns:xsi="http://www.w3.org/2001/XMLSchema-instance" xsi:noNamespaceSchemaLocation="http://sumo.dlr.de/xsd/sumoConfiguration.xsd">

    <input>
        <net-file value="${STATICPATH}/joined_lanes.net.xml"/>
        <route-files value="${SIMULATIONPATH}/generatedRoutes.rou.xml"/>
        <additional-files value="${STATICPATH}/detectors.add.xml,${STATICPATH}/joined_vtypes.add.xml,${STATICPATH}/joined_tls.add.xml"/>
    </input>

    <output>
        <fcd-output value="${SIMULATIONPATH}/fcd.xml"/>
        <queue-output value="${SIMULATIONPATH}/queue.xml"/>
        <summary-output value="${SIMULATIONPATH}/summary.xml"/>
        <tripinfo-output value="${SIMULATIONPATH}/tripinfos.xml"/>
        <vehroute-output value="${SIMULATIONPATH}/vehroute.xml"/>
        <save-state.prefix value="configs\state"/>
    </output>

    <processing>
        <ignore-junction-blocker value="1"/>
        <ignore-route-errors value="true"/>
        <time-to-teleport value="-1"/>
    </processing>

    <report>
        <log value="C:/Users/fabio/Desktop/sumo_log.txt"/>
        <no-step-log value="true"/>
    </report>

    <emissions>
        <phemlight-path value="configs\./PHEMlight/"/>
    </emissions>

    <traci_server>
        <remote-port value="60016"/>
    </traci_server>

</sumoConfiguration>
-->

<tripinfos xmlns:xsi="http://www.w3.org/2001/XMLSchema-instance" xsi:noNamespaceSchemaLocation="http://sumo.dlr.de/xsd/tripinfo_file.xsd">
    <tripinfo id="0" depart="38.00" departLane="a201_0" departPos="5.10" departSpeed="0.00" departDelay="0.46" arrival="253.00" arrivalLane="b2[1][1][1]b_0" arrivalPos="325.74" arrivalSpeed="13.50" duration="215.00" routeLength="2611.01" waitingTime="13.00" waitingCount="2" stopTime="0.00" timeLoss="35.55" rerouteNo="0" devices="vehroute_0 tripinfo_0 fcd_0" vType="DEFAULT_VEHTYPE" speedFactor="1.06" vaporized=""/>
    <tripinfo id="1" depart="129.00" departLane="a20001+87[1][0]_0" departPos="5.10" departSpeed="0.00" departDelay="0.94" arrival="304.00" arrivalLane="a204[1][1]_0" arrivalPos="436.51" arrivalSpeed="11.84" duration="175.00" routeLength="1471.49" waitingTime="38.00" waitingCount="2" stopTime="0.00" timeLoss="59.28" rerouteNo="0" devices="vehroute_1 tripinfo_1 fcd_1" vType="DEFAULT_VEHTYPE" speedFactor="0.94" vaporized=""/>
    <tripinfo id="4" depart="173.00" departLane="a195_0" departPos="5.10" departSpeed="0.00" departDelay="0.81" arrival="373.00" arrivalLane="a204[1][1]_0" arrivalPos="436.51" arrivalSpeed="14.11" duration="200.00" routeLength="2028.25" waitingTime="21.00" waitingCount="3" stopTime="0.00" timeLoss="54.52" rerouteNo="0" devices="vehroute_4 tripinfo_4 fcd_4" vType="DEFAULT_VEHTYPE" speedFactor="1.03" vaporized=""/>
    <tripinfo id="3" depart="154.00" departLane="b71_0" departPos="5.10" departSpeed="0.00" departDelay="0.52" arrival="432.00" arrivalLane="a77[0]_0" arrivalPos="66.48" arrivalSpeed="15.04" duration="278.00" routeLength="2355.42" waitingTime="85.00" waitingCount="3" stopTime="0.00" timeLoss="118.56" rerouteNo="0" devices="vehroute_3 tripinfo_3 fcd_3" vType="DEFAULT_VEHTYPE" speedFactor="1.08" vaporized=""/>
    <tripinfo id="6" depart="248.00" departLane="a195_0" departPos="5.10" departSpeed="0.00" departDelay="0.63" arrival="443.00" arrivalLane="a204[1][1]_0" arrivalPos="436.51" arrivalSpeed="13.74" duration="195.00" routeLength="2028.25" waitingTime="24.00" waitingCount="1" stopTime="0.00" timeLoss="50.41" rerouteNo="0" devices="vehroute_6 tripinfo_6 fcd_6" vType="DEFAULT_VEHTYPE" speedFactor="1.05" vaporized=""/>
    <tripinfo id="8" depart="276.00" departLane="a20001+87[1][0]_0" departPos="5.10" departSpeed="0.00" departDelay="0.90" arrival="446.00" arrivalLane="a204[1][1]_0" arrivalPos="436.51" arrivalSpeed="12.75" duration="170.00" routeLength="1471.49" waitingTime="27.00" waitingCount="3" stopTime="0.00" timeLoss="54.75" rerouteNo="0" devices="vehroute_8 tripinfo_8 fcd_8" vType="DEFAULT_VEHTYPE" speedFactor="0.94" vaporized=""/>
    <tripinfo id="2" depart="137.00" departLane="a212_0" departPos="5.10" departSpeed="0.00" departDelay="0.12" arrival="450.00" arrivalLane="b10_0" arrivalPos="224.30" arrivalSpeed="13.79" duration="313.00" routeLength="2695.67" waitingTime="77.00" waitingCount="4" stopTime="0.00" timeLoss="117.44" rerouteNo="0" devices="vehroute_2 tripinfo_2 fcd_2" vType="DEFAULT_VEHTYPE" speedFactor="1.01" vaporized=""/>
    <tripinfo id="7" depart="251.00" departLane="a195_0" departPos="5.10" departSpeed="0.00" departDelay="1.68" arrival="479.00" arrivalLane="a204[1][1]_0" arrivalPos="436.51" arrivalSpeed="11.01" duration="228.00" routeLength="2028.25" waitingTime="33.00" waitingCount="1" stopTime="0.00" timeLoss="58.59" rerouteNo="0" devices="vehroute_7 tripinfo_7 fcd_7" vType="DEFAULT_VEHTYPE" speedFactor="0.89" vaporized=""/>
    <tripinfo id="13" depart="411.00" departLane="a195_0" departPos="5.10" departSpeed="0.00" departDelay="0.76" arrival="564.00" arrivalLane="a204[1][1]_0" arrivalPos="436.51" arrivalSpeed="14.97" duration="153.00" routeLength="2028.25" waitingTime="0.00" waitingCount="0" stopTime="0.00" timeLoss="20.27" rerouteNo="0" devices="vehroute_13 tripinfo_13 fcd_13" vType="DEFAULT_VEHTYPE" speedFactor="1.12" vaporized=""/>
    <tripinfo id="5" depart="233.00" departLane="b49[0]_0" departPos="5.10" departSpeed="0.00" departDelay="0.38" arrival="580.00" arrivalLane="a204[1][1]_0" arrivalPos="436.51" arrivalSpeed="10.88" duration="347.00" routeLength="2717.88" waitingTime="69.00" waitingCount="3" stopTime="0.00" timeLoss="109.33" rerouteNo="0" devices="vehroute_5 tripinfo_5 fcd_5" vType="DEFAULT_VEHTYPE" speedFactor="0.83" vaporized=""/>
    <tripinfo id="9" depart="298.00" departLane="a203[0]_0" departPos="5.10" departSpeed="0.00" departDelay="0.58" arrival="592.00" arrivalLane="b10_0" arrivalPos="224.30" arrivalSpeed="11.80" duration="294.00" routeLength="2209.26" waitingTime="74.00" waitingCount="4" stopTime="0.00" timeLoss="107.87" rerouteNo="0" devices="vehroute_9 tripinfo_9 fcd_9" vType="DEFAULT_VEHTYPE" speedFactor="0.86" vaporized=""/>
    <tripinfo id="10" depart="368.00" departLane="a11_0" departPos="5.10" departSpeed="0.00" departDelay="0.26" arrival="613.00" arrivalLane="a77[1][1]_0" arrivalPos="464.98" arrivalSpeed="14.09" duration="245.00" routeLength="1583.59" waitingTime="109.00" waitingCount="3" stopTime="0.00" timeLoss="137.49" rerouteNo="0" devices="vehroute_10 tripinfo_10 fcd_10" vType="DEFAULT_VEHTYPE" speedFactor="1.09" vaporized=""/>
    <tripinfo id="11" depart="380.00" departLane="b49[0]_0" departPos="5.10" departSpeed="0.00" departDelay="0.68" arrival="654.00" arrivalLane="a204[1][1]_0" arrivalPos="436.51" arrivalSpeed="12.98" duration="274.00" routeLength="2717.88" waitingTime="39.00" waitingCount="4" stopTime="0.00" timeLoss="80.85" rerouteNo="0" devices="vehroute_11 tripinfo_11 fcd_11" vType="DEFAULT_VEHTYPE" speedFactor="1.03" vaporized=""/>
    <tripinfo id="18" depart="538.00" departLane="a210_0" departPos="5.10" departSpeed="0.00" departDelay="0.74" arrival="665.00" arrivalLane="a204[1][1]_0" arrivalPos="436.51" arrivalSpeed="12.82" duration="127.00" routeLength="1466.55" waitingTime="0.00" waitingCount="0" stopTime="0.00" timeLoss="13.97" rerouteNo="0" devices="vehroute_18 tripinfo_18 fcd_18" vType="DEFAULT_VEHTYPE" speedFactor="0.94" vaporized=""/>
    <tripinfo id="17" depart="482.00" departLane="a78[0]_0" departPos="5.10" departSpeed="0.00" departDelay="0.31" arrival="669.00" arrivalLane="b2[1][1][1]b_0" arrivalPos="325.74" arrivalSpeed="12.79" duration="187.00" routeLength="1757.08" waitingTime="33.00" waitingCount="1" stopTime="0.00" timeLoss="50.00" rerouteNo="0" devices="vehroute_17 tripinfo_17 fcd_17" vType="DEFAULT_VEHTYPE" speedFactor="0.94" vaporized=""/>
    <tripinfo id="12" depart="383.00" departLane="b49[0]_0" departPos="5.10" departSpeed="0.00" departDelay="2.50" arrival="702.00" arrivalLane="a204[1][1]_0" arrivalPos="436.51" arrivalSpeed="13.56" duration="319.00" routeLength="2717.88" waitingTime="83.00" waitingCount="4" stopTime="0.00" timeLoss="128.92" rerouteNo="0" devices="vehroute_12 tripinfo_12 fcd_12" vType="DEFAULT_VEHTYPE" speedFactor="1.05" vaporized=""/>
    <tripinfo id="14" depart="451.00" departLane="b71_0" departPos="5.10" departSpeed="0.00" departDelay="0.16" arrival="719.00" arrivalLane="a77[0]_0" arrivalPos="66.48" arrivalSpeed="12.55" duration="268.00" routeLength="2355.42" waitingTime="65.00" waitingCount="2" stopTime="0.00" timeLoss="93.42" rerouteNo="0" devices="vehroute_14 tripinfo_14 fcd_14" vType="DEFAULT_VEHTYPE" speedFactor="0.99" vaporized=""/>
    <tripinfo id="15" depart="458.00" departLane="a203[0]_0" departPos="5.10" departSpeed="0.00" departDelay="0.08" arrival="719.00" arrivalLane="b10_0" arrivalPos="224.30" arrivalSpeed="12.33" duration="261.00" routeLength="2209.26" waitingTime="62.00" waitingCount="3" stopTime="0.00" timeLoss="88.39" rerouteNo="0" devices="vehroute_15 tripinfo_15 fcd_15" vType="DEFAULT_VEHTYPE" speedFactor="0.93" vaporized=""/>
    <tripinfo id="19" depart="637.00" departLane="b15_0" departPos="5.10" departSpeed="0.00" departDelay="0.21" arrival="733.00" arrivalLane="b4[1][1][1]_0" arrivalPos="171.54" arrivalSpeed="15.09" duration="96.00" routeLength="958.48" waitingTime="20.00" waitingCount="1" stopTime="0.00" timeLoss="35.79" rerouteNo="0" devices="vehroute_19 tripinfo_19 fcd_19" vType="DEFAULT_VEHTYPE" speedFactor="1.16" vaporized=""/>
    <tripinfo id="16" depart="480.00" departLane="a55_0" departPos="5.10" departSpeed="0.00" departDelay="0.68" arrival="797.00" arrivalLane="a190_0" arrivalPos="221.75" arrivalSpeed="11.57" duration="317.00" routeLength="2875.35" waitingTime="43.00" waitingCount="2" stopTime="0.00" timeLoss="77.04" rerouteNo="0" devices="vehroute_16 tripinfo_16 fcd_16" vType="DEFAULT_VEHTYPE" speedFactor="0.88" vaporized=""/>
    <tripinfo id="21" depart="716.00" departLane="a210_0" departPos="5.10" departSpeed="0.00" departDelay="0.12" arrival="838.00" arrivalLane="a204[1][1]_0" arrivalPos="436.51" arrivalSpeed="13.01" duration="122.00" routeLength="1466.55" waitingTime="3.00" waitingCount="1" stopTime="0.00" timeLoss="17.29" rerouteNo="0" devices="vehroute_21 tripinfo_21 fcd_21" vType="DEFAULT_VEHTYPE" speedFactor="1.01" vaporized=""/>
    <tripinfo id="20" depart="683.00" departLane="a195_0" departPos="5.10" departSpeed="0.00" departDelay="0.10" arrival="919.00" arrivalLane="b2[1][1][1]b_0" arrivalPos="325.74" arrivalSpeed="13.94" duration="236.00" routeLength="2441.66" waitingTime="30.00" waitingCount="2" stopTime="0.00" timeLoss="60.63" rerouteNo="0" devices="vehroute_20 tripinfo_20 fcd_20" vType="DEFAULT_VEHTYPE" speedFactor="1.02" vaporized=""/>
    <tripinfo id="23" depart="821.00" departLane="a195_0" departPos="5.10" departSpeed="0.00" departDelay="0.77" arrival="1059.00" arrivalLane="b2[1][1][1]b_0" arrivalPos="325.74" arrivalSpeed="11.43" duration="238.00" routeLength="2441.66" waitingTime="8.00" waitingCount="2" stopTime="0.00" timeLoss="36.34" rerouteNo="0" devices="vehroute_23 tripinfo_23 fcd_23" vType="DEFAULT_VEHTYPE" speedFactor="0.89" vaporized=""/>
    <tripinfo id="30" depart="958.00" departLane="b15_0" departPos="5.10" departSpeed="0.00" departDelay="0.33" arrival="1081.00" arrivalLane="b4[1][1][1]_0" arrivalPos="171.54" arrivalSpeed="15.28" duration="123.00" routeLength="958.48" waitingTime="47.00" waitingCount="1" stopTime="0.00" timeLoss="63.65" rerouteNo="0" devices="vehroute_30 tripinfo_30 fcd_30" vType="DEFAULT_VEHTYPE" speedFactor="1.18" vaporized=""/>
    <tripinfo id="22" depart="818.00" departLane="a201_0" departPos="5.10" departSpeed="0.00" departDelay="0.93" arrival="1106.00" arrivalLane="b2[1][1][1]b_0" arrivalPos="325.74" arrivalSpeed="12.71" duration="288.00" routeLength="2611.01" waitingTime="67.00" waitingCount="2" stopTime="0.00" timeLoss="93.41" rerouteNo="0" devices="vehroute_22 tripinfo_22 fcd_22" vType="DEFAULT_VEHTYPE" speedFactor="0.97" vaporized=""/>
    <tripinfo id="27" depart="920.00" departLane="a78[0]_0" departPos="5.10" departSpeed="0.00" departDelay="0.51" arrival="1182.00" arrivalLane="b2[1][1][1]b_0" arrivalPos="325.74" arrivalSpeed="12.50" duration="262.00" routeLength="1757.08" waitingTime="105.00" waitingCount="2" stopTime="0.00" timeLoss="126.12" rerouteNo="0" devices="vehroute_27 tripinfo_27 fcd_27" vType="DEFAULT_VEHTYPE" speedFactor="0.95" vaporized=""/>
    <tripinfo id="29" depart="958.00" departLane="a195_0" departPos="5.10" departSpeed="0.00" departDelay="0.94" arrival="1182.00" arrivalLane="b2[1][1][1]b_1" arrivalPos="325.74" arrivalSpeed="12.92" duration="224.00" routeLength="2441.66" waitingTime="4.00" waitingCount="2" stopTime="0.00" timeLoss="31.94" rerouteNo="0" devices="vehroute_29 tripinfo_29 fcd_29" vType="DEFAULT_VEHTYPE" speedFactor="0.93" vaporized=""/>
    <tripinfo id="25" depart="895.00" departLane="b49[0]_0" departPos="5.10" departSpeed="0.00" departDelay="0.11" arrival="1219.00" arrivalLane="a204[1][1]_0" arrivalPos="436.51" arrivalSpeed="11.66" duration="324.00" routeLength="2717.88" waitingTime="46.00" waitingCount="5" stopTime="0.00" timeLoss="96.32" rerouteNo="0" devices="vehroute_25 tripinfo_25 fcd_25" vType="DEFAULT_VEHTYPE" speedFactor="0.87" vaporized=""/>
    <tripinfo id="24" depart="877.00" departLane="b71_0" departPos="5.10" departSpeed="0.00" departDelay="0.48" arrival="1224.00" arrivalLane="a77[0]_0" arrivalPos="66.48" arrivalSpeed="10.48" duration="347.00" routeLength="2355.42" waitingTime="102.00" waitingCount="3" stopTime="0.00" timeLoss="137.14" rerouteNo="0" devices="vehroute_24 tripinfo_24 fcd_24" vType="DEFAULT_VEHTYPE" speedFactor="0.83" vaporized=""/>
    <tripinfo id="28" depart="939.00" departLane="a201_0" departPos="5.10" departSpeed="0.00" departDelay="0.43" arrival="1226.00" arrivalLane="a77[1][1]_0" arrivalPos="464.98" arrivalSpeed="15.14" duration="287.00" routeLength="2529.00" waitingTime="93.00" waitingCount="2" stopTime="0.00" timeLoss="123.88" rerouteNo="0" devices="vehroute_28 tripinfo_28 fcd_28" vType="DEFAULT_VEHTYPE" speedFactor="1.13" vaporized=""/>
    <tripinfo id="31" depart="1006.00" departLane="a201_0" departPos="5.10" departSpeed="0.00" departDelay="0.28" arrival="1231.00" arrivalLane="b2[1][1][1]b_0" arrivalPos="325.74" arrivalSpeed="15.82" duration="225.00" routeLength="2608.05" waitingTime="32.00" waitingCount="2" stopTime="0.00" timeLoss="61.04" rerouteNo="0" devices="vehroute_31 tripinfo_31 fcd_31" vType="DEFAULT_VEHTYPE" speedFactor="1.15" vaporized=""/>
    <tripinfo id="26" depart="912.00" departLane="b37_0" departPos="5.10" departSpeed="0.00" departDelay="0.99" arrival="1245.00" arrivalLane="a204[1][1]_0" arrivalPos="436.51" arrivalSpeed="12.05" duration="333.00" routeLength="2876.11" waitingTime="70.00" waitingCount="4" stopTime="0.00" timeLoss="104.92" rerouteNo="0" devices="vehroute_26 tripinfo_26 fcd_26" vType="DEFAULT_VEHTYPE" speedFactor="0.92" vaporized=""/>
    <tripinfo id="33" depart="1165.00" departLane="a195_0" departPos="5.10" departSpeed="0.00" departDelay="0.40" arrival="1320.00" arrivalLane="a204[1][1]_0" arrivalPos="436.51" arrivalSpeed="15.84" duration="155.00" routeLength="2028.25" waitingTime="0.00" waitingCount="0" stopTime="0.00" timeLoss="27.56" rerouteNo="0" devices="vehroute_33 tripinfo_33 fcd_33" vType="DEFAULT_VEHTYPE" speedFactor="1.17" vaporized=""/>
    <tripinfo id="32" depart="1160.00" departLane="a195_0" departPos="5.10" departSpeed="0.00" departDelay="0.02" arrival="1364.00" arrivalLane="a204[1][1]_0" arrivalPos="436.51" arrivalSpeed="13.52" duration="204.00" routeLength="2028.25" waitingTime="30.00" waitingCount="1" stopTime="0.00" timeLoss="54.53" rerouteNo="0" devices="vehroute_32 tripinfo_32 fcd_32" vType="DEFAULT_VEHTYPE" speedFactor="1.01" vaporized=""/>
    <tripinfo id="41" depart="1458.00" departLane="b15_0" departPos="5.10" departSpeed="0.00" departDelay="0.73" arrival="1542.00" arrivalLane="b4[1][1][1]_0" arrivalPos="171.54" arrivalSpeed="13.17" duration="84.00" routeLength="958.48" waitingTime="0.00" waitingCount="0" stopTime="0.00" timeLoss="10.01" rerouteNo="0" devices="vehroute_41 tripinfo_41 fcd_41" vType="DEFAULT_VEHTYPE" speedFactor="0.96" vaporized=""/>
    <tripinfo id="38" depart="1394.00" departLane="a20001+87[1][0]_0" departPos="5.10" departSpeed="0.00" departDelay="0.52" arrival="1555.00" arrivalLane="a204[1][1]_0" arrivalPos="436.51" arrivalSpeed="14.98" duration="161.00" routeLength="1471.49" waitingTime="36.00" waitingCount="3" stopTime="0.00" timeLoss="62.69" rerouteNo="0" devices="vehroute_38 tripinfo_38 fcd_38" vType="DEFAULT_VEHTYPE" speedFactor="1.10" vaporized=""/>
    <tripinfo id="34" depart="1276.00" departLane="b49[0]_0" departPos="5.10" departSpeed="0.00" departDelay="0.75" arrival="1585.00" arrivalLane="a204[1][1]_0" arrivalPos="436.51" arrivalSpeed="13.62" duration="309.00" routeLength="2717.88" waitingTime="61.00" waitingCount="5" stopTime="0.00" timeLoss="109.81" rerouteNo="0" devices="vehroute_34 tripinfo_34 fcd_34" vType="DEFAULT_VEHTYPE" speedFactor="0.99" vaporized=""/>
    <tripinfo id="39" depart="1396.00" departLane="a195_0" departPos="5.10" departSpeed="0.00" departDelay="0.66" arrival="1591.00" arrivalLane="a204[1][1]_0" arrivalPos="436.51" arrivalSpeed="12.17" duration="195.00" routeLength="2028.25" waitingTime="4.00" waitingCount="1" stopTime="0.00" timeLoss="29.29" rerouteNo="0" devices="vehroute_39 tripinfo_39 fcd_39" vType="DEFAULT_VEHTYPE" speedFactor="0.90" vaporized=""/>
    <tripinfo id="35" depart="1278.00" departLane="a201_0" departPos="5.10" departSpeed="0.00" departDelay="0.57" arrival="1601.00" arrivalLane="a77[1][1]_0" arrivalPos="464.98" arrivalSpeed="13.20" duration="323.00" routeLength="2526.04" waitingTime="107.00" waitingCount="3" stopTime="0.00" timeLoss="142.05" rerouteNo="0" devices="vehroute_35 tripinfo_35 fcd_35" vType="DEFAULT_VEHTYPE" speedFactor="1.02" vaporized=""/>
    <tripinfo id="42" depart="1484.00" departLane="a20001+87[1][0]_0" departPos="5.10" departSpeed="0.00" departDelay="0.33" arrival="1631.00" arrivalLane="a204[1][1]_0" arrivalPos="436.51" arrivalSpeed="15.08" duration="147.00" routeLength="1471.49" waitingTime="26.00" waitingCount="2" stopTime="0.00" timeLoss="48.14" rerouteNo="0" devices="vehroute_42 tripinfo_42 fcd_42" vType="DEFAULT_VEHTYPE" speedFactor="1.09" vaporized=""/>
    <tripinfo id="40" depart="1413.00" departLane="b37_0" departPos="5.10" departSpeed="0.00" departDelay="0.38" arrival="1682.00" arrivalLane="a204[1][1]_0" arrivalPos="436.51" arrivalSpeed="13.42" duration="269.00" routeLength="2876.11" waitingTime="38.00" waitingCount="2" stopTime="0.00" timeLoss="66.12" rerouteNo="0" devices="vehroute_40 tripinfo_40 fcd_40" vType="DEFAULT_VEHTYPE" speedFactor="1.03" vaporized=""/>
    <tripinfo id="44" depart="1528.00" departLane="a20001+87[1][0]_0" departPos="5.10" departSpeed="0.00" departDelay="0.53" arrival="1723.00" arrivalLane="a204[1][1]_0" arrivalPos="436.51" arrivalSpeed="13.95" duration="195.00" routeLength="1471.49" waitingTime="69.00" waitingCount="2" stopTime="0.00" timeLoss="90.84" rerouteNo="0" devices="vehroute_44 tripinfo_44 fcd_44" vType="DEFAULT_VEHTYPE" speedFactor="1.04" vaporized=""/>
    <tripinfo id="36" depart="1338.00" departLane="a201_0" departPos="5.10" departSpeed="0.00" departDelay="0.93" arrival="1726.00" arrivalLane="b2[1][1][1]b_0" arrivalPos="325.74" arrivalSpeed="12.75" duration="388.00" routeLength="2611.01" waitingTime="148.00" waitingCount="5" stopTime="0.00" timeLoss="192.91" rerouteNo="0" devices="vehroute_36 tripinfo_36 fcd_36" vType="DEFAULT_VEHTYPE" speedFactor="0.97" vaporized=""/>
    <tripinfo id="43" depart="1507.00" departLane="a37_0" departPos="5.10" departSpeed="0.00" departDelay="0.11" arrival="1762.00" arrivalLane="b53a_0" arrivalPos="257.19" arrivalSpeed="13.14" duration="255.00" routeLength="2571.74" waitingTime="36.00" waitingCount="3" stopTime="0.00" timeLoss="72.89" rerouteNo="0" devices="vehroute_43 tripinfo_43 fcd_43" vType="DEFAULT_VEHTYPE" speedFactor="1.04" vaporized=""/>
    <tripinfo id="37" depart="1391.00" departLane="a55_0" departPos="5.10" departSpeed="0.00" departDelay="0.14" arrival="1797.00" arrivalLane="a190_0" arrivalPos="221.75" arrivalSpeed="15.38" duration="406.00" routeLength="2875.35" waitingTime="177.00" waitingCount="4" stopTime="0.00" timeLoss="227.67" rerouteNo="0" devices="vehroute_37 tripinfo_37 fcd_37" vType="DEFAULT_VEHTYPE" speedFactor="1.18" vaporized=""/>
    <tripinfo id="46" depart="1621.00" departLane="a20001+87[1][0]_0" departPos="5.10" departSpeed="0.00" departDelay="0.55" arrival="1799.00" arrivalLane="a204[1][1]_0" arrivalPos="436.51" arrivalSpeed="13.81" duration="178.00" routeLength="1471.49" waitingTime="47.00" waitingCount="2" stopTime="0.00" timeLoss="69.69" rerouteNo="0" devices="vehroute_46 tripinfo_46 fcd_46" vType="DEFAULT_VEHTYPE" speedFactor="1.00" vaporized=""/>
    <tripinfo id="45" depart="1596.00" departLane="a201_0" departPos="5.10" departSpeed="0.00" departDelay="0.22" arrival="1849.00" arrivalLane="b2[1][1][1]b_0" arrivalPos="325.74" arrivalSpeed="14.21" duration="253.00" routeLength="2608.05" waitingTime="34.00" waitingCount="4" stopTime="0.00" timeLoss="78.66" rerouteNo="0" devices="vehroute_45 tripinfo_45 fcd_45" vType="DEFAULT_VEHTYPE" speedFactor="1.09" vaporized=""/>
    <tripinfo id="48" depart="1664.00" departLane="b49[0]_0" departPos="5.10" departSpeed="0.00" departDelay="0.99" arrival="1955.00" arrivalLane="a204[1][1]_0" arrivalPos="436.51" arrivalSpeed="11.72" duration="291.00" routeLength="2717.88" waitingTime="27.00" waitingCount="3" stopTime="0.00" timeLoss="64.78" rerouteNo="0" devices="vehroute_48 tripinfo_48 fcd_48" vType="DEFAULT_VEHTYPE" speedFactor="0.88" vaporized=""/>
    <tripinfo id="47" depart="1623.00" departLane="b71_0" departPos="5.10" departSpeed="0.00" departDelay="0.77" arrival="1974.00" arrivalLane="a77[0]_0" arrivalPos="66.48" arrivalSpeed="11.85" duration="351.00" routeLength="2355.42" waitingTime="117.00" waitingCount="4" stopTime="0.00" timeLoss="159.16" rerouteNo="0" devices="vehroute_47 tripinfo_47 fcd_47" vType="DEFAULT_VEHTYPE" speedFactor="0.90" vaporized=""/>
    <tripinfo id="50" depart="1722.00" departLane="b49[0]_0" departPos="5.10" departSpeed="0.00" departDelay="0.28" arrival="1996.00" arrivalLane="a204[1][1]_0" arrivalPos="436.51" arrivalSpeed="10.79" duration="274.00" routeLength="2717.88" waitingTime="9.00" waitingCount="1" stopTime="0.00" timeLoss="42.50" rerouteNo="0" devices="vehroute_50 tripinfo_50 fcd_50" vType="DEFAULT_VEHTYPE" speedFactor="0.85" vaporized=""/>
    <tripinfo id="51" depart="1734.00" departLane="a55_0" departPos="5.10" departSpeed="0.00" departDelay="0.11" arrival="1998.00" arrivalLane="a190_0" arrivalPos="221.75" arrivalSpeed="15.94" duration="264.00" routeLength="2875.35" waitingTime="46.00" waitingCount="3" stopTime="0.00" timeLoss="84.55" rerouteNo="0" devices="vehroute_51 tripinfo_51 fcd_51" vType="DEFAULT_VEHTYPE" speedFactor="1.17" vaporized=""/>
    <tripinfo id="52" depart="1784.00" departLane="a13_0" departPos="5.10" departSpeed="0.00" departDelay="0.37" arrival="2016.00" arrivalLane="b2[1][1][1]b_0" arrivalPos="325.74" arrivalSpeed="13.16" duration="232.00" routeLength="1684.52" waitingTime="88.00" waitingCount="2" stopTime="0.00" timeLoss="111.29" rerouteNo="0" devices="vehroute_52 tripinfo_52 fcd_52" vType="DEFAULT_VEHTYPE" speedFactor="1.02" vaporized=""/>
    <tripinfo id="49" depart="1708.00" departLane="a212_0" departPos="5.10" departSpeed="0.00" departDelay="0.39" arrival="2034.00" arrivalLane="b10_0" arrivalPos="224.30" arrivalSpeed="11.04" duration="326.00" routeLength="2695.67" waitingTime="58.00" waitingCount="3" stopTime="0.00" timeLoss="94.36" rerouteNo="0" devices="vehroute_49 tripinfo_49 fcd_49" vType="DEFAULT_VEHTYPE" speedFactor="0.85" vaporized=""/>
    <tripinfo id="53" depart="1798.00" departLane="a212_0" departPos="5.10" departSpeed="0.00" departDelay="0.40" arrival="2060.00" arrivalLane="b10_0" arrivalPos="224.30" arrivalSpeed="14.10" duration="262.00" routeLength="2695.67" waitingTime="55.00" waitingCount="2" stopTime="0.00" timeLoss="82.18" rerouteNo="0" devices="vehroute_53 tripinfo_53 fcd_53" vType="DEFAULT_VEHTYPE" speedFactor="1.10" vaporized=""/>
    <tripinfo id="57" depart="1979.00" departLane="a210_0" departPos="5.10" departSpeed="0.00" departDelay="0.38" arrival="2140.00" arrivalLane="a204[1][1]_0" arrivalPos="436.51" arrivalSpeed="15.70" duration="161.00" routeLength="1466.55" waitingTime="41.00" waitingCount="2" stopTime="0.00" timeLoss="67.77" rerouteNo="0" devices="vehroute_57 tripinfo_57 fcd_57" vType="DEFAULT_VEHTYPE" speedFactor="1.14" vaporized=""/>
    <tripinfo id="54" depart="1831.00" departLane="b49[0]_0" departPos="5.10" departSpeed="0.00" departDelay="0.11" arrival="2143.00" arrivalLane="a204[1][1]_0" arrivalPos="436.51" arrivalSpeed="12.92" duration="312.00" routeLength="2717.88" waitingTime="68.00" waitingCount="5" stopTime="0.00" timeLoss="115.19" rerouteNo="0" devices="vehroute_54 tripinfo_54 fcd_54" vType="DEFAULT_VEHTYPE" speedFactor="1.00" vaporized=""/>
    <tripinfo id="55" depart="1853.00" departLane="a195_0" departPos="5.10" departSpeed="0.00" departDelay="0.23" arrival="2152.00" arrivalLane="b2[1][1][1]b_0" arrivalPos="325.74" arrivalSpeed="13.39" duration="299.00" routeLength="2441.66" waitingTime="89.00" waitingCount="2" stopTime="0.00" timeLoss="119.16" rerouteNo="0" devices="vehroute_55 tripinfo_55 fcd_55" vType="DEFAULT_VEHTYPE" speedFactor="1.00" vaporized=""/>
    <tripinfo id="56" depart="1892.00" departLane="a201_0" departPos="5.10" departSpeed="0.00" departDelay="0.18" arrival="2225.00" arrivalLane="a77[1][1]_0" arrivalPos="464.98" arrivalSpeed="11.95" duration="333.00" routeLength="2529.00" waitingTime="90.00" waitingCount="3" stopTime="0.00" timeLoss="126.56" rerouteNo="0" devices="vehroute_56 tripinfo_56 fcd_56" vType="DEFAULT_VEHTYPE" speedFactor="0.90" vaporized=""/>
    <tripinfo id="58" depart="2096.00" departLane="a195_0" departPos="5.10" departSpeed="0.00" departDelay="0.27" arrival="2384.00" arrivalLane="b2[1][1][1]b_0" arrivalPos="325.74" arrivalSpeed="13.79" duration="288.00" routeLength="2441.66" waitingTime="87.00" waitingCount="2" stopTime="0.00" timeLoss="113.87" rerouteNo="0" devices="vehroute_58 tripinfo_58 fcd_58" vType="DEFAULT_VEHTYPE" speedFactor="1.02" vaporized=""/>
    <tripinfo id="59" depart="2211.00" departLane="b34[1][1]_0" departPos="5.10" departSpeed="0.00" departDelay="0.31" arrival="2404.00" arrivalLane="b4[1][1][1]_0" arrivalPos="171.54" arrivalSpeed="12.99" duration="193.00" routeLength="1668.57" waitingTime="42.00" waitingCount="2" stopTime="0.00" timeLoss="65.40" rerouteNo="0" devices="vehroute_59 tripinfo_59 fcd_59" vType="DEFAULT_VEHTYPE" speedFactor="0.97" vaporized=""/>
    <tripinfo id="61" depart="2266.00" departLane="a201_0" departPos="5.10" departSpeed="0.00" departDelay="0.52" arrival="2459.00" arrivalLane="b2[1][1][1]b_0" arrivalPos="325.74" arrivalSpeed="14.96" duration="193.00" routeLength="2611.01" waitingTime="1.00" waitingCount="1" stopTime="0.00" timeLoss="23.11" rerouteNo="0" devices="vehroute_61 tripinfo_61 fcd_61" vType="DEFAULT_VEHTYPE" speedFactor="1.12" vaporized=""/>
    <tripinfo id="63" depart="2347.00" departLane="a13_0" departPos="5.10" departSpeed="0.00" departDelay="0.84" arrival="2509.00" arrivalLane="b2[1][1][1]b_0" arrivalPos="325.74" arrivalSpeed="13.14" duration="162.00" routeLength="1684.52" waitingTime="18.00" waitingCount="1" stopTime="0.00" timeLoss="38.01" rerouteNo="0" devices="vehroute_63 tripinfo_63 fcd_63" vType="DEFAULT_VEHTYPE" speedFactor="0.99" vaporized=""/>
    <tripinfo id="60" depart="2229.00" departLane="b49[0]_0" departPos="5.10" departSpeed="0.00" departDelay="0.79" arrival="2511.00" arrivalLane="a204[1][1]_0" arrivalPos="436.51" arrivalSpeed="14.89" duration="282.00" routeLength="2717.88" waitingTime="54.00" waitingCount="5" stopTime="0.00" timeLoss="98.04" rerouteNo="0" devices="vehroute_60 tripinfo_60 fcd_60" vType="DEFAULT_VEHTYPE" speedFactor="1.08" vaporized=""/>
    <tripinfo id="66" depart="2372.00" departLane="a78[0]_0" departPos="5.10" departSpeed="0.00" departDelay="0.71" arrival="2526.00" arrivalLane="b2[1][1][1]b_0" arrivalPos="325.74" arrivalSpeed="12.46" duration="154.00" routeLength="1757.08" waitingTime="0.00" waitingCount="0" stopTime="0.00" timeLoss="12.89" rerouteNo="0" devices="vehroute_66 tripinfo_66 fcd_66" vType="DEFAULT_VEHTYPE" speedFactor="0.91" vaporized=""/>
    <tripinfo id="65" depart="2361.00" departLane="b34[1][1]_0" departPos="5.10" departSpeed="0.00" departDelay="0.39" arrival="2554.00" arrivalLane="b4[1][1][1]_0" arrivalPos="171.54" arrivalSpeed="12.08" duration="193.00" routeLength="1668.57" waitingTime="33.00" waitingCount="2" stopTime="0.00" timeLoss="54.30" rerouteNo="0" devices="vehroute_65 tripinfo_65 fcd_65" vType="DEFAULT_VEHTYPE" speedFactor="0.88" vaporized=""/>
    <tripinfo id="62" depart="2326.00" departLane="b37_0" departPos="5.10" departSpeed="0.00" departDelay="0.08" arrival="2592.00" arrivalLane="a204[1][1]_0" arrivalPos="436.51" arrivalSpeed="13.75" duration="266.00" routeLength="2876.11" waitingTime="33.00" waitingCount="2" stopTime="0.00" timeLoss="60.22" rerouteNo="0" devices="vehroute_62 tripinfo_62 fcd_62" vType="DEFAULT_VEHTYPE" speedFactor="1.02" vaporized=""/>
    <tripinfo id="64" depart="2355.00" departLane="b49[0]_0" departPos="5.10" departSpeed="0.00" departDelay="0.33" arrival="2667.00" arrivalLane="a204[1][1]_0" arrivalPos="436.51" arrivalSpeed="12.58" duration="312.00" routeLength="2717.88" waitingTime="52.00" waitingCount="5" stopTime="0.00" timeLoss="100.86" rerouteNo="0" devices="vehroute_64 tripinfo_64 fcd_64" vType="DEFAULT_VEHTYPE" speedFactor="0.94" vaporized=""/>