<?xml version="1.0" encoding="UTF-8"?>

<!-- generated on 2025-03-21 17:38:07 by Eclipse SUMO sumo Version 1.21.0
<sumoConfiguration xmlns:xsi="http://www.w3.org/2001/XMLSchema-instance" xsi:noNamespaceSchemaLocation="http://sumo.dlr.de/xsd/sumoConfiguration.xsd">

    <input>
        <net-file value="${STATICPATH}/joined_lanes.net.xml"/>
        <route-files value="${SIMULATIONPATH}/generatedRoutes.rou.xml"/>
        <additional-files value="${STATICPATH}/detectors.add.xml,${STATICPATH}/joined_vtypes.add.xml,${STATICPATH}/joined_tls.add.xml"/>
    </input>

    <output>
        <fcd-output value="${SIMULATIONPATH}/fcd.xml"/>
        <queue-output value="${SIMULATIONPATH}/queue.xml"/>
        <summary-output value="${SIMULATIONPATH}/summary.xml"/>
        <tripinfo-output value="${SIMULATIONPATH}/tripinfos.xml"/>
        <vehroute-output value="${SIMULATIONPATH}/vehroute.xml"/>
        <save-state.prefix value="configs\state"/>
    </output>

    <processing>
        <ignore-junction-blocker value="1"/>
        <ignore-route-errors value="true"/>
        <time-to-teleport value="-1"/>
    </processing>

    <report>
        <log value="C:/Users/fabio/Desktop/sumo_log.txt"/>
        <no-step-log value="true"/>
    </report>

    <emissions>
        <phemlight-path value="configs\./PHEMlight/"/>
    </emissions>

    <traci_server>
        <remote-port value="60117"/>
    </traci_server>

</sumoConfiguration>
-->

<tripinfos xmlns:xsi="http://www.w3.org/2001/XMLSchema-instance" xsi:noNamespaceSchemaLocation="http://sumo.dlr.de/xsd/tripinfo_file.xsd">
    <tripinfo id="0" depart="2.00" departLane="a16_0" departPos="5.10" departSpeed="0.00" departDelay="0.80" arrival="330.00" arrivalLane="b4[1][1][1]_0" arrivalPos="171.54" arrivalSpeed="14.23" duration="328.00" routeLength="3117.61" waitingTime="53.00" waitingCount="6" stopTime="0.00" timeLoss="112.42" rerouteNo="0" devices="vehroute_0 tripinfo_0 fcd_0" vType="DEFAULT_VEHTYPE" speedFactor="1.06" vaporized=""/>
    <tripinfo id="1" depart="5.00" departLane="a16_0" departPos="5.10" departSpeed="0.00" departDelay="0.55" arrival="401.00" arrivalLane="b4[1][1][1]_0" arrivalPos="171.54" arrivalSpeed="12.03" duration="396.00" routeLength="3117.61" waitingTime="86.00" waitingCount="5" stopTime="0.00" timeLoss="150.74" rerouteNo="0" devices="vehroute_1 tripinfo_1 fcd_1" vType="DEFAULT_VEHTYPE" speedFactor="0.94" vaporized=""/>
    <tripinfo id="3" depart="73.00" departLane="a16_0" departPos="5.10" departSpeed="0.00" departDelay="0.91" arrival="463.00" arrivalLane="b4[1][1][1]_0" arrivalPos="171.54" arrivalSpeed="14.08" duration="390.00" routeLength="3117.61" waitingTime="106.00" waitingCount="6" stopTime="0.00" timeLoss="177.82" rerouteNo="0" devices="vehroute_3 tripinfo_3 fcd_3" vType="DEFAULT_VEHTYPE" speedFactor="1.08" vaporized=""/>
    <tripinfo id="2" depart="64.00" departLane="a16_0" departPos="5.10" departSpeed="0.00" departDelay="0.32" arrival="526.00" arrivalLane="b4[1][1][1]_0" arrivalPos="171.54" arrivalSpeed="13.65" duration="462.00" routeLength="3117.61" waitingTime="171.00" waitingCount="6" stopTime="0.00" timeLoss="235.17" rerouteNo="0" devices="vehroute_2 tripinfo_2 fcd_2" vType="DEFAULT_VEHTYPE" speedFactor="1.01" vaporized=""/>
    <tripinfo id="4" depart="83.00" departLane="a16_0" departPos="5.10" departSpeed="0.00" departDelay="0.58" arrival="528.00" arrivalLane="b4[1][1][1]_0" arrivalPos="171.54" arrivalSpeed="13.48" duration="445.00" routeLength="3117.61" waitingTime="140.00" waitingCount="6" stopTime="0.00" timeLoss="222.17" rerouteNo="0" devices="vehroute_4 tripinfo_4 fcd_4" vType="DEFAULT_VEHTYPE" speedFactor="1.03" vaporized=""/>
    <tripinfo id="6" depart="269.00" departLane="a16_0" departPos="5.10" departSpeed="0.00" departDelay="0.33" arrival="652.00" arrivalLane="b4[1][1][1]_0" arrivalPos="171.54" arrivalSpeed="13.95" duration="383.00" routeLength="3117.61" waitingTime="95.00" waitingCount="3" stopTime="0.00" timeLoss="163.19" rerouteNo="0" devices="vehroute_6 tripinfo_6 fcd_6" vType="DEFAULT_VEHTYPE" speedFactor="1.05" vaporized=""/>
    <tripinfo id="5" depart="228.00" departLane="a16_0" departPos="5.10" departSpeed="0.00" departDelay="0.81" arrival="657.00" arrivalLane="b4[1][1][1]_0" arrivalPos="171.54" arrivalSpeed="10.90" duration="429.00" routeLength="3117.61" waitingTime="96.00" waitingCount="5" stopTime="0.00" timeLoss="152.61" rerouteNo="0" devices="vehroute_5 tripinfo_5 fcd_5" vType="DEFAULT_VEHTYPE" speedFactor="0.83" vaporized=""/>
    <tripinfo id="8" depart="335.00" departLane="a16_0" departPos="5.10" departSpeed="0.00" departDelay="0.46" arrival="779.00" arrivalLane="b4[1][1][1]_0" arrivalPos="171.54" arrivalSpeed="12.94" duration="444.00" routeLength="3117.61" waitingTime="127.00" waitingCount="6" stopTime="0.00" timeLoss="198.34" rerouteNo="0" devices="vehroute_8 tripinfo_8 fcd_8" vType="DEFAULT_VEHTYPE" speedFactor="0.94" vaporized=""/>
    <tripinfo id="7" depart="288.00" departLane="a16_0" departPos="5.10" departSpeed="0.00" departDelay="0.12" arrival="782.00" arrivalLane="b4[1][1][1]_0" arrivalPos="171.54" arrivalSpeed="11.54" duration="494.00" routeLength="3117.61" waitingTime="174.00" waitingCount="6" stopTime="0.00" timeLoss="234.58" rerouteNo="0" devices="vehroute_7 tripinfo_7 fcd_7" vType="DEFAULT_VEHTYPE" speedFactor="0.89" vaporized=""/>
    <tripinfo id="10" depart="432.00" departLane="a16_0" departPos="5.10" departSpeed="0.00" departDelay="0.62" arrival="807.00" arrivalLane="b4[1][1][1]_0" arrivalPos="171.54" arrivalSpeed="14.67" duration="375.00" routeLength="3117.61" waitingTime="79.00" waitingCount="4" stopTime="0.00" timeLoss="163.87" rerouteNo="0" devices="vehroute_10 tripinfo_10 fcd_10" vType="DEFAULT_VEHTYPE" speedFactor="1.09" vaporized=""/>
    <tripinfo id="9" depart="424.00" departLane="a16_0" departPos="5.10" departSpeed="0.00" departDelay="0.46" arrival="825.00" arrivalLane="b4[1][1][1]_0" arrivalPos="171.54" arrivalSpeed="11.22" duration="401.00" routeLength="3117.61" waitingTime="84.00" waitingCount="4" stopTime="0.00" timeLoss="133.71" rerouteNo="0" devices="vehroute_9 tripinfo_9 fcd_9" vType="DEFAULT_VEHTYPE" speedFactor="0.86" vaporized=""/>
    <tripinfo id="11" depart="439.00" departLane="a16_0" departPos="5.10" departSpeed="0.00" departDelay="0.66" arrival="903.00" arrivalLane="b4[1][1][1]_0" arrivalPos="171.54" arrivalSpeed="13.01" duration="464.00" routeLength="3117.61" waitingTime="151.00" waitingCount="7" stopTime="0.00" timeLoss="240.54" rerouteNo="0" devices="vehroute_11 tripinfo_11 fcd_11" vType="DEFAULT_VEHTYPE" speedFactor="1.03" vaporized=""/>
    <tripinfo id="12" depart="442.00" departLane="a16_0" departPos="5.10" departSpeed="0.00" departDelay="2.67" arrival="905.00" arrivalLane="b4[1][1][1]_0" arrivalPos="171.54" arrivalSpeed="14.21" duration="463.00" routeLength="3117.61" waitingTime="139.00" waitingCount="7" stopTime="0.00" timeLoss="243.01" rerouteNo="0" devices="vehroute_12 tripinfo_12 fcd_12" vType="DEFAULT_VEHTYPE" speedFactor="1.05" vaporized=""/>
    <tripinfo id="13" depart="502.00" departLane="a16_0" departPos="5.10" departSpeed="0.00" departDelay="0.89" arrival="919.00" arrivalLane="b4[1][1][1]_0" arrivalPos="171.54" arrivalSpeed="14.93" duration="417.00" routeLength="3117.61" waitingTime="153.00" waitingCount="6" stopTime="0.00" timeLoss="213.44" rerouteNo="0" devices="vehroute_13 tripinfo_13 fcd_13" vType="DEFAULT_VEHTYPE" speedFactor="1.12" vaporized=""/>
    <tripinfo id="14" depart="509.00" departLane="a16_0" departPos="5.10" departSpeed="0.00" departDelay="0.40" arrival="930.00" arrivalLane="b4[1][1][1]_0" arrivalPos="171.54" arrivalSpeed="12.80" duration="421.00" routeLength="3117.61" waitingTime="129.00" waitingCount="5" stopTime="0.00" timeLoss="189.48" rerouteNo="0" devices="vehroute_14 tripinfo_14 fcd_14" vType="DEFAULT_VEHTYPE" speedFactor="0.99" vaporized=""/>
    <tripinfo id="17" depart="583.00" departLane="a16_0" departPos="5.10" departSpeed="0.00" departDelay="0.65" arrival="1036.00" arrivalLane="b4[1][1][1]_0" arrivalPos="171.54" arrivalSpeed="11.87" duration="453.00" routeLength="3117.61" waitingTime="133.00" waitingCount="7" stopTime="0.00" timeLoss="208.08" rerouteNo="0" devices="vehroute_17 tripinfo_17 fcd_17" vType="DEFAULT_VEHTYPE" speedFactor="0.94" vaporized=""/>
    <tripinfo id="18" depart="614.00" departLane="a16_0" departPos="5.10" departSpeed="0.00" departDelay="0.28" arrival="1038.00" arrivalLane="b4[1][1][1]_0" arrivalPos="171.54" arrivalSpeed="12.02" duration="424.00" routeLength="3117.61" waitingTime="95.00" waitingCount="6" stopTime="0.00" timeLoss="178.14" rerouteNo="0" devices="vehroute_18 tripinfo_18 fcd_18" vType="DEFAULT_VEHTYPE" speedFactor="0.94" vaporized=""/>
    <tripinfo id="20" depart="640.00" departLane="a16_0" departPos="5.10" departSpeed="0.00" departDelay="0.04" arrival="1040.00" arrivalLane="b4[1][1][1]_0" arrivalPos="171.54" arrivalSpeed="13.35" duration="400.00" routeLength="3117.61" waitingTime="78.00" waitingCount="4" stopTime="0.00" timeLoss="174.42" rerouteNo="0" devices="vehroute_20 tripinfo_20 fcd_20" vType="DEFAULT_VEHTYPE" speedFactor="1.02" vaporized=""/>
    <tripinfo id="15" depart="554.00" departLane="a16_0" departPos="5.10" departSpeed="0.00" departDelay="0.35" arrival="1043.00" arrivalLane="b4[1][1][1]_0" arrivalPos="171.54" arrivalSpeed="12.79" duration="489.00" routeLength="3117.61" waitingTime="172.00" waitingCount="6" stopTime="0.00" timeLoss="240.71" rerouteNo="0" devices="vehroute_15 tripinfo_15 fcd_15" vType="DEFAULT_VEHTYPE" speedFactor="0.93" vaporized=""/>
    <tripinfo id="19" depart="617.00" departLane="a16_0" departPos="5.10" departSpeed="0.00" departDelay="2.61" arrival="1044.00" arrivalLane="b4[1][1][1]_0" arrivalPos="171.54" arrivalSpeed="14.62" duration="427.00" routeLength="3117.61" waitingTime="94.00" waitingCount="6" stopTime="0.00" timeLoss="228.58" rerouteNo="0" devices="vehroute_19 tripinfo_19 fcd_19" vType="DEFAULT_VEHTYPE" speedFactor="1.16" vaporized=""/>
    <tripinfo id="16" depart="574.00" departLane="a16_0" departPos="5.10" departSpeed="0.00" departDelay="0.51" arrival="1048.00" arrivalLane="b4[1][1][1]_0" arrivalPos="171.54" arrivalSpeed="11.54" duration="474.00" routeLength="3117.61" waitingTime="135.00" waitingCount="7" stopTime="0.00" timeLoss="213.03" rerouteNo="0" devices="vehroute_16 tripinfo_16 fcd_16" vType="DEFAULT_VEHTYPE" speedFactor="0.88" vaporized=""/>
    <tripinfo id="21" depart="691.00" departLane="a16_0" departPos="5.10" departSpeed="0.00" departDelay="0.58" arrival="1053.00" arrivalLane="b4[1][1][1]_0" arrivalPos="171.54" arrivalSpeed="13.77" duration="362.00" routeLength="3117.61" waitingTime="85.00" waitingCount="5" stopTime="0.00" timeLoss="135.19" rerouteNo="0" devices="vehroute_21 tripinfo_21 fcd_21" vType="DEFAULT_VEHTYPE" speedFactor="1.01" vaporized=""/>
    <tripinfo id="22" depart="763.00" departLane="a16_0" departPos="5.10" departSpeed="0.00" departDelay="0.68" arrival="1213.00" arrivalLane="b4[1][1][1]_0" arrivalPos="171.54" arrivalSpeed="12.85" duration="450.00" routeLength="3117.61" waitingTime="160.00" waitingCount="7" stopTime="0.00" timeLoss="215.12" rerouteNo="0" devices="vehroute_22 tripinfo_22 fcd_22" vType="DEFAULT_VEHTYPE" speedFactor="0.97" vaporized=""/>
    <tripinfo id="23" depart="766.00" departLane="a16_0" departPos="5.10" departSpeed="0.00" departDelay="2.86" arrival="1217.00" arrivalLane="b4[1][1][1]_0" arrivalPos="171.54" arrivalSpeed="11.51" duration="451.00" routeLength="3117.61" waitingTime="132.00" waitingCount="6" stopTime="0.00" timeLoss="192.19" rerouteNo="0" devices="vehroute_23 tripinfo_23 fcd_23" vType="DEFAULT_VEHTYPE" speedFactor="0.89" vaporized=""/>
    <tripinfo id="25" depart="819.00" departLane="a16_0" departPos="5.10" departSpeed="0.00" departDelay="0.51" arrival="1220.00" arrivalLane="b4[1][1][1]_0" arrivalPos="171.54" arrivalSpeed="11.06" duration="401.00" routeLength="3117.61" waitingTime="69.00" waitingCount="3" stopTime="0.00" timeLoss="137.19" rerouteNo="0" devices="vehroute_25 tripinfo_25 fcd_25" vType="DEFAULT_VEHTYPE" speedFactor="0.87" vaporized=""/>
    <tripinfo id="26" depart="838.00" departLane="a16_0" departPos="5.10" departSpeed="0.00" departDelay="0.82" arrival="1221.00" arrivalLane="b4[1][1][1]_0" arrivalPos="171.54" arrivalSpeed="12.63" duration="383.00" routeLength="3117.61" waitingTime="82.00" waitingCount="3" stopTime="0.00" timeLoss="133.16" rerouteNo="0" devices="vehroute_26 tripinfo_26 fcd_26" vType="DEFAULT_VEHTYPE" speedFactor="0.92" vaporized=""/>
    <tripinfo id="24" depart="806.00" departLane="a16_0" departPos="5.10" departSpeed="0.00" departDelay="0.99" arrival="1225.00" arrivalLane="b4[1][1][1]_0" arrivalPos="171.54" arrivalSpeed="11.40" duration="419.00" routeLength="3117.61" waitingTime="81.00" waitingCount="5" stopTime="0.00" timeLoss="140.23" rerouteNo="0" devices="vehroute_24 tripinfo_24 fcd_24" vType="DEFAULT_VEHTYPE" speedFactor="0.83" vaporized=""/>
    <tripinfo id="28" depart="878.00" departLane="a16_0" departPos="5.10" departSpeed="0.00" departDelay="0.84" arrival="1337.00" arrivalLane="b4[1][1][1]_0" arrivalPos="171.54" arrivalSpeed="15.45" duration="459.00" routeLength="3117.61" waitingTime="177.00" waitingCount="5" stopTime="0.00" timeLoss="256.19" rerouteNo="0" devices="vehroute_28 tripinfo_28 fcd_28" vType="DEFAULT_VEHTYPE" speedFactor="1.13" vaporized=""/>
    <tripinfo id="27" depart="861.00" departLane="a16_0" departPos="5.10" departSpeed="0.00" departDelay="0.40" arrival="1342.00" arrivalLane="b4[1][1][1]_0" arrivalPos="171.54" arrivalSpeed="12.82" duration="481.00" routeLength="3117.61" waitingTime="178.00" waitingCount="6" stopTime="0.00" timeLoss="238.15" rerouteNo="0" devices="vehroute_27 tripinfo_27 fcd_27" vType="DEFAULT_VEHTYPE" speedFactor="0.95" vaporized=""/>
    <tripinfo id="30" depart="956.00" departLane="a16_0" departPos="5.10" departSpeed="0.00" departDelay="0.61" arrival="1343.00" arrivalLane="b4[1][1][1]_0" arrivalPos="171.54" arrivalSpeed="15.91" duration="387.00" routeLength="3117.61" waitingTime="110.00" waitingCount="6" stopTime="0.00" timeLoss="192.38" rerouteNo="0" devices="vehroute_30 tripinfo_30 fcd_30" vType="DEFAULT_VEHTYPE" speedFactor="1.18" vaporized=""/>
    <tripinfo id="31" depart="1000.00" departLane="a16_0" departPos="5.10" departSpeed="0.00" departDelay="0.09" arrival="1345.00" arrivalLane="b4[1][1][1]_0" arrivalPos="171.54" arrivalSpeed="14.90" duration="345.00" routeLength="3117.61" waitingTime="59.00" waitingCount="6" stopTime="0.00" timeLoss="145.85" rerouteNo="0" devices="vehroute_31 tripinfo_31 fcd_31" vType="DEFAULT_VEHTYPE" speedFactor="1.15" vaporized=""/>
    <tripinfo id="32" depart="1007.00" departLane="a16_0" departPos="5.10" departSpeed="0.00" departDelay="0.07" arrival="1348.00" arrivalLane="b4[1][1][1]_0" arrivalPos="171.54" arrivalSpeed="13.67" duration="341.00" routeLength="3117.61" waitingTime="39.00" waitingCount="4" stopTime="0.00" timeLoss="113.07" rerouteNo="0" devices="vehroute_32 tripinfo_32 fcd_32" vType="DEFAULT_VEHTYPE" speedFactor="1.01" vaporized=""/>
    <tripinfo id="29" depart="926.00" departLane="a16_0" departPos="5.10" departSpeed="0.00" departDelay="0.63" arrival="1351.00" arrivalLane="b4[1][1][1]_0" arrivalPos="171.54" arrivalSpeed="12.55" duration="425.00" routeLength="3117.61" waitingTime="116.00" waitingCount="5" stopTime="0.00" timeLoss="178.07" rerouteNo="0" devices="vehroute_29 tripinfo_29 fcd_29" vType="DEFAULT_VEHTYPE" speedFactor="0.93" vaporized=""/>
    <tripinfo id="33" depart="1071.00" departLane="a16_0" departPos="5.10" departSpeed="0.00" departDelay="0.52" arrival="1463.00" arrivalLane="b4[1][1][1]_0" arrivalPos="171.54" arrivalSpeed="15.59" duration="392.00" routeLength="3117.61" waitingTime="122.00" waitingCount="8" stopTime="0.00" timeLoss="197.10" rerouteNo="0" devices="vehroute_33 tripinfo_33 fcd_33" vType="DEFAULT_VEHTYPE" speedFactor="1.17" vaporized=""/>
    <tripinfo id="34" depart="1084.00" departLane="a16_0" departPos="5.10" departSpeed="0.00" departDelay="0.93" arrival="1467.00" arrivalLane="b4[1][1][1]_0" arrivalPos="171.54" arrivalSpeed="13.02" duration="383.00" routeLength="3117.61" waitingTime="81.00" waitingCount="5" stopTime="0.00" timeLoss="152.32" rerouteNo="0" devices="vehroute_34 tripinfo_34 fcd_34" vType="DEFAULT_VEHTYPE" speedFactor="0.99" vaporized=""/>
    <tripinfo id="37" depart="1162.00" departLane="a16_0" departPos="5.10" departSpeed="0.00" departDelay="0.90" arrival="1591.00" arrivalLane="b4[1][1][1]_0" arrivalPos="171.54" arrivalSpeed="15.38" duration="429.00" routeLength="3117.61" waitingTime="140.00" waitingCount="7" stopTime="0.00" timeLoss="234.47" rerouteNo="0" devices="vehroute_37 tripinfo_37 fcd_37" vType="DEFAULT_VEHTYPE" speedFactor="1.18" vaporized=""/>
    <tripinfo id="35" depart="1130.00" departLane="a16_0" departPos="5.10" departSpeed="0.00" departDelay="0.58" arrival="1594.00" arrivalLane="b4[1][1][1]_0" arrivalPos="171.54" arrivalSpeed="13.29" duration="464.00" routeLength="3117.61" waitingTime="177.00" waitingCount="7" stopTime="0.00" timeLoss="239.65" rerouteNo="0" devices="vehroute_35 tripinfo_35 fcd_35" vType="DEFAULT_VEHTYPE" speedFactor="1.02" vaporized=""/>
    <tripinfo id="36" depart="1144.00" departLane="a16_0" departPos="5.10" departSpeed="0.00" departDelay="0.89" arrival="1597.00" arrivalLane="b4[1][1][1]_0" arrivalPos="171.54" arrivalSpeed="13.32" duration="453.00" routeLength="3117.61" waitingTime="150.00" waitingCount="6" stopTime="0.00" timeLoss="216.05" rerouteNo="0" devices="vehroute_36 tripinfo_36 fcd_36" vType="DEFAULT_VEHTYPE" speedFactor="0.97" vaporized=""/>
    <tripinfo id="38" depart="1231.00" departLane="a16_0" departPos="5.10" departSpeed="0.00" departDelay="0.97" arrival="1599.00" arrivalLane="b4[1][1][1]_0" arrivalPos="171.54" arrivalSpeed="15.00" duration="368.00" routeLength="3117.61" waitingTime="98.00" waitingCount="4" stopTime="0.00" timeLoss="159.42" rerouteNo="0" devices="vehroute_38 tripinfo_38 fcd_38" vType="DEFAULT_VEHTYPE" speedFactor="1.10" vaporized=""/>
    <tripinfo id="40" depart="1314.00" departLane="a16_0" departPos="5.10" departSpeed="0.00" departDelay="0.73" arrival="1728.00" arrivalLane="b4[1][1][1]_0" arrivalPos="171.54" arrivalSpeed="13.65" duration="414.00" routeLength="3117.61" waitingTime="122.00" waitingCount="6" stopTime="0.00" timeLoss="191.49" rerouteNo="0" devices="vehroute_40 tripinfo_40 fcd_40" vType="DEFAULT_VEHTYPE" speedFactor="1.03" vaporized=""/>
    <tripinfo id="39" depart="1247.00" departLane="a16_0" departPos="5.10" departSpeed="0.00" departDelay="0.24" arrival="1733.00" arrivalLane="b4[1][1][1]_0" arrivalPos="171.54" arrivalSpeed="11.89" duration="486.00" routeLength="3117.61" waitingTime="167.00" waitingCount="6" stopTime="0.00" timeLoss="230.89" rerouteNo="0" devices="vehroute_39 tripinfo_39 fcd_39" vType="DEFAULT_VEHTYPE" speedFactor="0.90" vaporized=""/>
    <tripinfo id="42" depart="1378.00" departLane="a16_0" departPos="5.10" departSpeed="0.00" departDelay="0.91" arrival="1734.00" arrivalLane="b4[1][1][1]_0" arrivalPos="171.54" arrivalSpeed="14.41" duration="356.00" routeLength="3117.61" waitingTime="55.00" waitingCount="5" stopTime="0.00" timeLoss="145.59" rerouteNo="0" devices="vehroute_42 tripinfo_42 fcd_42" vType="DEFAULT_VEHTYPE" speedFactor="1.09" vaporized=""/>
    <tripinfo id="43" depart="1392.00" departLane="a16_0" departPos="5.10" departSpeed="0.00" departDelay="0.74" arrival="1736.00" arrivalLane="b4[1][1][1]_0" arrivalPos="171.54" arrivalSpeed="13.95" duration="344.00" routeLength="3117.61" waitingTime="46.00" waitingCount="3" stopTime="0.00" timeLoss="123.04" rerouteNo="0" devices="vehroute_43 tripinfo_43 fcd_43" vType="DEFAULT_VEHTYPE" speedFactor="1.04" vaporized=""/>
    <tripinfo id="41" depart="1372.00" departLane="a16_0" departPos="5.10" departSpeed="0.00" departDelay="0.73" arrival="1739.00" arrivalLane="b4[1][1][1]_0" arrivalPos="171.54" arrivalSpeed="12.97" duration="367.00" routeLength="3117.61" waitingTime="58.00" waitingCount="5" stopTime="0.00" timeLoss="126.15" rerouteNo="0" devices="vehroute_41 tripinfo_41 fcd_41" vType="DEFAULT_VEHTYPE" speedFactor="0.96" vaporized=""/>
    <tripinfo id="45" depart="1430.00" departLane="a16_0" departPos="5.10" departSpeed="0.00" departDelay="0.16" arrival="1858.00" arrivalLane="b4[1][1][1]_0" arrivalPos="171.54" arrivalSpeed="15.08" duration="428.00" routeLength="3117.61" waitingTime="142.00" waitingCount="7" stopTime="0.00" timeLoss="216.34" rerouteNo="0" devices="vehroute_45 tripinfo_45 fcd_45" vType="DEFAULT_VEHTYPE" speedFactor="1.09" vaporized=""/>
    <tripinfo id="44" depart="1408.00" departLane="a16_0" departPos="5.10" departSpeed="0.00" departDelay="0.25" arrival="1860.00" arrivalLane="b4[1][1][1]_0" arrivalPos="171.54" arrivalSpeed="14.06" duration="452.00" routeLength="3117.61" waitingTime="165.00" waitingCount="7" stopTime="0.00" timeLoss="232.33" rerouteNo="0" devices="vehroute_44 tripinfo_44 fcd_44" vType="DEFAULT_VEHTYPE" speedFactor="1.04" vaporized=""/>
    <tripinfo id="46" depart="1475.00" departLane="a16_0" departPos="5.10" departSpeed="0.00" departDelay="0.88" arrival="1863.00" arrivalLane="b4[1][1][1]_0" arrivalPos="171.54" arrivalSpeed="13.17" duration="388.00" routeLength="3117.61" waitingTime="84.00" waitingCount="5" stopTime="0.00" timeLoss="157.32" rerouteNo="0" devices="vehroute_46 tripinfo_46 fcd_46" vType="DEFAULT_VEHTYPE" speedFactor="1.00" vaporized=""/>
    <tripinfo id="48" depart="1550.00" departLane="a16_0" departPos="5.10" departSpeed="0.00" departDelay="0.79" arrival="1999.00" arrivalLane="b4[1][1][1]_0" arrivalPos="171.54" arrivalSpeed="11.75" duration="449.00" routeLength="3117.61" waitingTime="122.00" waitingCount="6" stopTime="0.00" timeLoss="187.63" rerouteNo="0" devices="vehroute_48 tripinfo_48 fcd_48" vType="DEFAULT_VEHTYPE" speedFactor="0.88" vaporized=""/>
    <tripinfo id="47" depart="1522.00" departLane="a16_0" departPos="5.10" departSpeed="0.00" departDelay="0.32" arrival="2001.00" arrivalLane="b4[1][1][1]_0" arrivalPos="171.54" arrivalSpeed="11.76" duration="479.00" routeLength="3117.61" waitingTime="160.00" waitingCount="7" stopTime="0.00" timeLoss="224.63" rerouteNo="0" devices="vehroute_47 tripinfo_47 fcd_47" vType="DEFAULT_VEHTYPE" speedFactor="0.90" vaporized=""/>
    <tripinfo id="49" depart="1710.00" departLane="a16_0" departPos="5.10" departSpeed="0.00" departDelay="0.41" arrival="2055.00" arrivalLane="b4[1][1][1]_0" arrivalPos="171.54" arrivalSpeed="11.61" duration="345.00" routeLength="3117.61" waitingTime="28.00" waitingCount="3" stopTime="0.00" timeLoss="74.48" rerouteNo="0" devices="vehroute_49 tripinfo_49 fcd_49" vType="DEFAULT_VEHTYPE" speedFactor="0.85" vaporized=""/>
    <tripinfo id="51" depart="1726.00" departLane="a16_0" departPos="5.10" departSpeed="0.00" departDelay="0.32" arrival="2123.00" arrivalLane="b4[1][1][1]_0" arrivalPos="171.54" arrivalSpeed="15.88" duration="397.00" routeLength="3117.61" waitingTime="85.00" waitingCount="5" stopTime="0.00" timeLoss="200.16" rerouteNo="0" devices="vehroute_51 tripinfo_51 fcd_51" vType="DEFAULT_VEHTYPE" speedFactor="1.17" vaporized=""/>
    <tripinfo id="50" depart="1722.00" departLane="a16_0" departPos="5.10" departSpeed="0.00" departDelay="0.36" arrival="2129.00" arrivalLane="b4[1][1][1]_0" arrivalPos="171.54" arrivalSpeed="11.22" duration="407.00" routeLength="3117.61" waitingTime="76.00" waitingCount="5" stopTime="0.00" timeLoss="138.31" rerouteNo="0" devices="vehroute_50 tripinfo_50 fcd_50" vType="DEFAULT_VEHTYPE" speedFactor="0.85" vaporized=""/>
    <tripinfo id="53" depart="1805.00" departLane="a16_0" departPos="5.10" departSpeed="0.00" departDelay="0.85" arrival="2155.00" arrivalLane="b4[1][1][1]_0" arrivalPos="171.54" arrivalSpeed="15.00" duration="350.00" routeLength="3117.61" waitingTime="80.00" waitingCount="4" stopTime="0.00" timeLoss="140.28" rerouteNo="0" devices="vehroute_53 tripinfo_53 fcd_53" vType="DEFAULT_VEHTYPE" speedFactor="1.10" vaporized=""/>
    <tripinfo id="52" depart="1745.00" departLane="a16_0" departPos="5.10" departSpeed="0.00" departDelay="0.43" arrival="2159.00" arrivalLane="b4[1][1][1]_0" arrivalPos="171.54" arrivalSpeed="13.43" duration="414.00" routeLength="3117.61" waitingTime="136.00" waitingCount="4" stopTime="0.00" timeLoss="187.95" rerouteNo="0" devices="vehroute_52 tripinfo_52 fcd_52" vType="DEFAULT_VEHTYPE" speedFactor="1.02" vaporized=""/>
    <tripinfo id="54" depart="1822.00" departLane="a16_0" departPos="5.10" departSpeed="0.00" departDelay="0.01" arrival="2262.00" arrivalLane="b4[1][1][1]_0" arrivalPos="171.54" arrivalSpeed="13.64" duration="440.00" routeLength="3117.61" waitingTime="139.00" waitingCount="6" stopTime="0.00" timeLoss="210.12" rerouteNo="0" devices="vehroute_54 tripinfo_54 fcd_54" vType="DEFAULT_VEHTYPE" speedFactor="1.00" vaporized=""/>
    <tripinfo id="55" depart="1825.00" departLane="a16_0" departPos="5.10" departSpeed="0.00" departDelay="0.38" arrival="2264.00" arrivalLane="b4[1][1][1]_0" arrivalPos="171.54" arrivalSpeed="12.76" duration="439.00" routeLength="3117.61" waitingTime="130.00" waitingCount="5" stopTime="0.00" timeLoss="207.59" rerouteNo="0" devices="vehroute_55 tripinfo_55 fcd_55" vType="DEFAULT_VEHTYPE" speedFactor="1.00" vaporized=""/>
    <tripinfo id="57" depart="1917.00" departLane="a16_0" departPos="5.10" departSpeed="0.00" departDelay="0.07" arrival="2278.00" arrivalLane="b4[1][1][1]_0" arrivalPos="171.54" arrivalSpeed="15.81" duration="361.00" routeLength="3117.61" waitingTime="85.00" waitingCount="3" stopTime="0.00" timeLoss="160.07" rerouteNo="0" devices="vehroute_57 tripinfo_57 fcd_57" vType="DEFAULT_VEHTYPE" speedFactor="1.14" vaporized=""/>
    <tripinfo id="56" depart="1836.00" departLane="a16_0" departPos="5.10" departSpeed="0.00" departDelay="0.99" arrival="2295.00" arrivalLane="b4[1][1][1]_0" arrivalPos="171.54" arrivalSpeed="11.61" duration="459.00" routeLength="3117.61" waitingTime="151.00" waitingCount="5" stopTime="0.00" timeLoss="202.94" rerouteNo="0" devices="vehroute_56 tripinfo_56 fcd_56" vType="DEFAULT_VEHTYPE" speedFactor="0.90" vaporized=""/>
    <tripinfo id="58" depart="1944.00" departLane="a16_0" departPos="5.10" departSpeed="0.00" departDelay="0.96" arrival="2393.00" arrivalLane="b4[1][1][1]_0" arrivalPos="171.54" arrivalSpeed="13.02" duration="449.00" routeLength="3117.61" waitingTime="154.00" waitingCount="6" stopTime="0.00" timeLoss="224.41" rerouteNo="0" devices="vehroute_58 tripinfo_58 fcd_58" vType="DEFAULT_VEHTYPE" speedFactor="1.02" vaporized=""/>
    <tripinfo id="60" depart="2040.00" departLane="a16_0" departPos="5.10" departSpeed="0.00" departDelay="0.33" arrival="2404.00" arrivalLane="b4[1][1][1]_0" arrivalPos="171.54" arrivalSpeed="14.39" duration="364.00" routeLength="3117.61" waitingTime="85.00" waitingCount="4" stopTime="0.00" timeLoss="151.45" rerouteNo="0" devices="vehroute_60 tripinfo_60 fcd_60" vType="DEFAULT_VEHTYPE" speedFactor="1.08" vaporized=""/>
    <tripinfo id="61" depart="2063.00" departLane="a16_0" departPos="5.10" departSpeed="0.00" departDelay="0.05" arrival="2406.00" arrivalLane="b4[1][1][1]_0" arrivalPos="171.54" arrivalSpeed="14.45" duration="343.00" routeLength="3117.61" waitingTime="62.00" waitingCount="4" stopTime="0.00" timeLoss="137.78" rerouteNo="0" devices="vehroute_61 tripinfo_61 fcd_61" vType="DEFAULT_VEHTYPE" speedFactor="1.12" vaporized=""/>
    <tripinfo id="59" depart="2032.00" departLane="a16_0" departPos="5.10" departSpeed="0.00" departDelay="0.01" arrival="2410.00" arrivalLane="b4[1][1][1]_0" arrivalPos="171.54" arrivalSpeed="12.43" duration="378.00" routeLength="3117.61" waitingTime="90.00" waitingCount="5" stopTime="0.00" timeLoss="140.42" rerouteNo="0" devices="vehroute_59 tripinfo_59 fcd_59" vType="DEFAULT_VEHTYPE" speedFactor="0.97" vaporized=""/>
    <tripinfo id="62" depart="2069.00" departLane="a16_0" departPos="5.10" departSpeed="0.00" departDelay="0.49" arrival="2436.00" arrivalLane="b4[1][1][1]_0" arrivalPos="171.54" arrivalSpeed="14.06" duration="367.00" routeLength="3117.61" waitingTime="65.00" waitingCount="5" stopTime="0.00" timeLoss="140.53" rerouteNo="0" devices="vehroute_62 tripinfo_62 fcd_62" vType="DEFAULT_VEHTYPE" speedFactor="1.02" vaporized=""/>
    <tripinfo id="63" depart="2072.00" departLane="a16_0" departPos="5.10" departSpeed="0.00" departDelay="1.41" arrival="2440.00" arrivalLane="b4[1][1][1]_0" arrivalPos="171.54" arrivalSpeed="13.27" duration="368.00" routeLength="3117.61" waitingTime="57.00" waitingCount="5" stopTime="0.00" timeLoss="134.90" rerouteNo="0" devices="vehroute_63 tripinfo_63 fcd_63" vType="DEFAULT_VEHTYPE" speedFactor="0.99" vaporized=""/>
    <tripinfo id="64" depart="2140.00" departLane="a16_0" departPos="5.10" departSpeed="0.00" departDelay="0.55" arrival="2570.00" arrivalLane="b4[1][1][1]_0" arrivalPos="171.54" arrivalSpeed="12.90" duration="430.00" routeLength="3117.61" waitingTime="129.00" waitingCount="5" stopTime="0.00" timeLoss="184.39" rerouteNo="0" devices="vehroute_64 tripinfo_64 fcd_64" vType="DEFAULT_VEHTYPE" speedFactor="0.94" vaporized=""/>
    <tripinfo id="66" depart="2183.00" departLane="a16_0" departPos="5.10" departSpeed="0.00" departDelay="0.06" arrival="2574.00" arrivalLane="b4[1][1][1]_0" arrivalPos="171.54" arrivalSpeed="11.99" duration="391.00" routeLength="3117.61" waitingTime="69.00" waitingCount="5" stopTime="0.00" timeLoss="136.40" rerouteNo="0" devices="vehroute_66 tripinfo_66 fcd_66" vType="DEFAULT_VEHTYPE" speedFactor="0.91" vaporized=""/>
    <tripinfo id="67" depart="2191.00" departLane="a16_0" departPos="5.10" departSpeed="0.00" departDelay="0.45" arrival="2576.00" arrivalLane="b4[1][1][1]_0" arrivalPos="171.54" arrivalSpeed="11.86" duration="385.00" routeLength="3117.61" waitingTime="62.00" waitingCount="4" stopTime="0.00" timeLoss="133.44" rerouteNo="0" devices="vehroute_67 tripinfo_67 fcd_67" vType="DEFAULT_VEHTYPE" speedFactor="0.91" vaporized=""/>