<?xml version="1.0" encoding="UTF-8"?>

<!-- generated on 2025-03-21 17:55:09 by Eclipse SUMO sumo Version 1.21.0
<sumoConfiguration xmlns:xsi="http://www.w3.org/2001/XMLSchema-instance" xsi:noNamespaceSchemaLocation="http://sumo.dlr.de/xsd/sumoConfiguration.xsd">

    <input>
        <net-file value="${STATICPATH}/joined_lanes.net.xml"/>
        <route-files value="${SIMULATIONPATH}/generatedRoutes.rou.xml"/>
        <additional-files value="${STATICPATH}/detectors.add.xml,${STATICPATH}/joined_vtypes.add.xml,${STATICPATH}/joined_tls.add.xml"/>
    </input>

    <output>
        <fcd-output value="${SIMULATIONPATH}/fcd.xml"/>
        <queue-output value="${SIMULATIONPATH}/queue.xml"/>
        <summary-output value="${SIMULATIONPATH}/summary.xml"/>
        <tripinfo-output value="${SIMULATIONPATH}/tripinfos.xml"/>
        <vehroute-output value="${SIMULATIONPATH}/vehroute.xml"/>
        <save-state.prefix value="configs\state"/>
    </output>

    <processing>
        <ignore-junction-blocker value="1"/>
        <ignore-route-errors value="true"/>
        <time-to-teleport value="-1"/>
    </processing>

    <report>
        <log value="C:/Users/fabio/Desktop/sumo_log.txt"/>
        <no-step-log value="true"/>
    </report>

    <emissions>
        <phemlight-path value="configs\./PHEMlight/"/>
    </emissions>

    <traci_server>
        <remote-port value="60232"/>
    </traci_server>

</sumoConfiguration>
-->

<fcd-export xmlns:xsi="http://www.w3.org/2001/XMLSchema-instance" xsi:noNamespaceSchemaLocation="http://sumo.dlr.de/xsd/fcd_file.xsd">
    <timestep time="0.00"/>
    <timestep time="1.00"/>
    <timestep time="2.00">
        <vehicle id="0" x="354.90" y="362.53" angle="68.91" type="DEFAULT_VEHTYPE" speed="0.00" pos="5.10" lane="a78[0]_0" slope="0.00"/>
    </timestep>
    <timestep time="3.00">
        <vehicle id="0" x="356.42" y="363.11" angle="68.91" type="DEFAULT_VEHTYPE" speed="1.63" pos="6.73" lane="a78[0]_0" slope="0.00"/>
    </timestep>
    <timestep time="4.00">
        <vehicle id="0" x="359.47" y="364.29" angle="68.91" type="DEFAULT_VEHTYPE" speed="3.27" pos="10.00" lane="a78[0]_0" slope="0.00"/>
    </timestep>
    <timestep time="5.00">
        <vehicle id="0" x="364.13" y="366.09" angle="68.91" type="DEFAULT_VEHTYPE" speed="5.00" pos="15.00" lane="a78[0]_0" slope="0.00"/>
        <vehicle id="1" x="1335.81" y="828.55" angle="90.00" type="DEFAULT_VEHTYPE" speed="0.00" pos="5.10" lane="a161_0" slope="0.00"/>
    </timestep>
    <timestep time="6.00">
        <vehicle id="0" x="370.45" y="368.52" angle="68.91" type="DEFAULT_VEHTYPE" speed="6.77" pos="21.76" lane="a78[0]_0" slope="0.00"/>
        <vehicle id="1" x="1337.18" y="828.55" angle="90.00" type="DEFAULT_VEHTYPE" speed="1.38" pos="6.48" lane="a161_0" slope="0.00"/>
    </timestep>
    <timestep time="7.00">
        <vehicle id="0" x="378.61" y="371.67" angle="68.91" type="DEFAULT_VEHTYPE" speed="8.75" pos="30.51" lane="a78[0]_0" slope="0.00"/>
        <vehicle id="1" x="1339.89" y="828.55" angle="90.00" type="DEFAULT_VEHTYPE" speed="2.70" pos="9.18" lane="a161_0" slope="0.00"/>
    </timestep>
    <timestep time="8.00">
        <vehicle id="0" x="388.62" y="375.53" angle="68.91" type="DEFAULT_VEHTYPE" speed="10.74" pos="41.25" lane="a78[0]_0" slope="0.00"/>
        <vehicle id="1" x="1344.03" y="828.55" angle="90.00" type="DEFAULT_VEHTYPE" speed="4.14" pos="13.32" lane="a161_0" slope="0.00"/>
    </timestep>
    <timestep time="9.00">
        <vehicle id="0" x="400.27" y="380.03" angle="68.91" type="DEFAULT_VEHTYPE" speed="12.48" pos="53.73" lane="a78[0]_0" slope="0.00"/>
        <vehicle id="1" x="1350.71" y="828.55" angle="90.00" type="DEFAULT_VEHTYPE" speed="6.69" pos="20.01" lane="a161_0" slope="0.00"/>
    </timestep>
    <timestep time="10.00">
        <vehicle id="0" x="412.82" y="384.87" angle="68.91" type="DEFAULT_VEHTYPE" speed="13.45" pos="67.18" lane="a78[0]_0" slope="0.00"/>
        <vehicle id="1" x="1359.84" y="831.75" angle="90.00" type="DEFAULT_VEHTYPE" speed="9.11" pos="29.13" lane="a161_1" slope="0.00"/>
    </timestep>
    <timestep time="11.00">
        <vehicle id="0" x="426.32" y="390.07" angle="68.91" type="DEFAULT_VEHTYPE" speed="14.47" pos="81.65" lane="a78[0]_0" slope="0.00"/>
        <vehicle id="1" x="1371.51" y="831.75" angle="90.00" type="DEFAULT_VEHTYPE" speed="11.67" pos="40.80" lane="a161_1" slope="0.00"/>
    </timestep>
    <timestep time="12.00">
        <vehicle id="0" x="439.89" y="395.31" angle="68.91" type="DEFAULT_VEHTYPE" speed="14.55" pos="96.20" lane="a78[0]_0" slope="0.00"/>
        <vehicle id="1" x="1384.47" y="831.72" angle="90.33" type="DEFAULT_VEHTYPE" speed="12.96" pos="53.75" lane="a161_1" slope="0.00"/>
    </timestep>
    <timestep time="13.00">
        <vehicle id="0" x="452.46" y="400.16" angle="68.91" type="DEFAULT_VEHTYPE" speed="13.47" pos="109.67" lane="a78[0]_0" slope="0.00"/>
        <vehicle id="1" x="1396.89" y="831.42" angle="91.38" type="DEFAULT_VEHTYPE" speed="12.43" pos="66.18" lane="a161_1" slope="0.00"/>
    </timestep>
    <timestep time="14.00">
        <vehicle id="0" x="465.65" y="405.24" angle="68.91" type="DEFAULT_VEHTYPE" speed="14.13" pos="123.81" lane="a78[0]_0" slope="0.00"/>
        <vehicle id="1" x="1409.50" y="831.12" angle="91.38" type="DEFAULT_VEHTYPE" speed="12.61" pos="78.79" lane="a161_1" slope="0.00"/>
    </timestep>
    <timestep time="15.00">
        <vehicle id="0" x="478.96" y="410.38" angle="68.91" type="DEFAULT_VEHTYPE" speed="14.26" pos="138.07" lane="a78[0]_0" slope="0.00"/>
        <vehicle id="1" x="1422.33" y="830.70" angle="91.96" type="DEFAULT_VEHTYPE" speed="12.84" pos="91.63" lane="a161_1" slope="0.00"/>
    </timestep>
    <timestep time="16.00">
        <vehicle id="0" x="491.95" y="415.39" angle="68.91" type="DEFAULT_VEHTYPE" speed="13.92" pos="151.99" lane="a78[0]_0" slope="0.00"/>
        <vehicle id="1" x="1434.76" y="830.28" angle="91.96" type="DEFAULT_VEHTYPE" speed="12.44" pos="104.07" lane="a161_1" slope="0.00"/>
    </timestep>
    <timestep time="17.00">
        <vehicle id="0" x="504.62" y="420.28" angle="68.91" type="DEFAULT_VEHTYPE" speed="13.58" pos="165.57" lane="a78[0]_0" slope="0.00"/>
        <vehicle id="1" x="1447.54" y="829.84" angle="91.96" type="DEFAULT_VEHTYPE" speed="12.79" pos="116.86" lane="a161_1" slope="0.00"/>
    </timestep>
    <timestep time="18.00">
        <vehicle id="0" x="518.31" y="425.56" angle="68.91" type="DEFAULT_VEHTYPE" speed="14.68" pos="180.25" lane="a78[0]_0" slope="0.00"/>
        <vehicle id="1" x="1460.33" y="829.40" angle="91.96" type="DEFAULT_VEHTYPE" speed="12.80" pos="129.66" lane="a161_1" slope="0.00"/>
    </timestep>
    <timestep time="19.00">
        <vehicle id="0" x="531.02" y="430.46" angle="68.91" type="DEFAULT_VEHTYPE" speed="13.63" pos="193.88" lane="a78[0]_0" slope="0.00"/>
        <vehicle id="1" x="1472.97" y="828.97" angle="91.96" type="DEFAULT_VEHTYPE" speed="12.65" pos="142.30" lane="a161_1" slope="0.00"/>
    </timestep>
    <timestep time="20.00">
        <vehicle id="0" x="543.67" y="435.34" angle="68.91" type="DEFAULT_VEHTYPE" speed="13.55" pos="207.43" lane="a78[0]_0" slope="0.00"/>
        <vehicle id="1" x="1485.64" y="828.54" angle="91.96" type="DEFAULT_VEHTYPE" speed="12.67" pos="154.97" lane="a161_1" slope="0.00"/>
    </timestep>
    <timestep time="21.00">
        <vehicle id="0" x="556.67" y="440.35" angle="68.91" type="DEFAULT_VEHTYPE" speed="13.94" pos="221.36" lane="a78[0]_0" slope="0.00"/>
        <vehicle id="1" x="1498.26" y="828.10" angle="91.96" type="DEFAULT_VEHTYPE" speed="12.63" pos="167.61" lane="a161_1" slope="0.00"/>
    </timestep>
    <timestep time="22.00">
        <vehicle id="0" x="569.21" y="445.19" angle="68.91" type="DEFAULT_VEHTYPE" speed="13.44" pos="234.80" lane="a78[0]_0" slope="0.00"/>
        <vehicle id="1" x="1510.91" y="827.67" angle="91.96" type="DEFAULT_VEHTYPE" speed="12.66" pos="180.27" lane="a161_1" slope="0.00"/>
    </timestep>
    <timestep time="23.00">
        <vehicle id="0" x="582.07" y="450.15" angle="68.91" type="DEFAULT_VEHTYPE" speed="13.79" pos="248.59" lane="a78[0]_0" slope="0.00"/>
        <vehicle id="1" x="1522.84" y="827.26" angle="91.96" type="DEFAULT_VEHTYPE" speed="11.93" pos="192.20" lane="a161_1" slope="0.00"/>
    </timestep>
    <timestep time="24.00">
        <vehicle id="0" x="595.28" y="455.25" angle="68.91" type="DEFAULT_VEHTYPE" speed="14.15" pos="262.74" lane="a78[0]_0" slope="0.00"/>
        <vehicle id="1" x="1535.39" y="826.77" angle="92.26" type="DEFAULT_VEHTYPE" speed="12.56" pos="12.19" lane=":a79_1_1" slope="0.00"/>
    </timestep>
    <timestep time="25.00">
        <vehicle id="0" x="608.22" y="460.24" angle="68.91" type="DEFAULT_VEHTYPE" speed="13.87" pos="276.62" lane="a78[0]_0" slope="0.00"/>
        <vehicle id="1" x="1547.25" y="826.27" angle="92.61" type="DEFAULT_VEHTYPE" speed="11.87" pos="5.04" lane="a122_1" slope="0.00"/>
    </timestep>
    <timestep time="26.00">
        <vehicle id="0" x="621.77" y="465.46" angle="68.91" type="DEFAULT_VEHTYPE" speed="14.51" pos="291.13" lane="a78[0]_0" slope="0.00"/>
        <vehicle id="1" x="1560.19" y="825.68" angle="92.61" type="DEFAULT_VEHTYPE" speed="12.96" pos="18.00" lane="a122_1" slope="0.00"/>
    </timestep>
    <timestep time="27.00">
        <vehicle id="0" x="634.32" y="470.30" angle="68.91" type="DEFAULT_VEHTYPE" speed="13.46" pos="304.59" lane="a78[0]_0" slope="0.00"/>
        <vehicle id="1" x="1572.24" y="825.13" angle="92.61" type="DEFAULT_VEHTYPE" speed="12.06" pos="30.06" lane="a122_1" slope="0.00"/>
    </timestep>
    <timestep time="28.00">
        <vehicle id="0" x="647.73" y="475.48" angle="68.91" type="DEFAULT_VEHTYPE" speed="14.37" pos="318.96" lane="a78[0]_0" slope="0.00"/>
        <vehicle id="1" x="1584.21" y="824.58" angle="92.61" type="DEFAULT_VEHTYPE" speed="11.98" pos="42.04" lane="a122_1" slope="0.00"/>
    </timestep>
    <timestep time="29.00">
        <vehicle id="0" x="660.27" y="480.31" angle="68.91" type="DEFAULT_VEHTYPE" speed="13.44" pos="332.40" lane="a78[0]_0" slope="0.00"/>
        <vehicle id="1" x="1597.15" y="823.99" angle="92.61" type="DEFAULT_VEHTYPE" speed="12.96" pos="55.00" lane="a122_1" slope="0.00"/>
    </timestep>
    <timestep time="30.00">
        <vehicle id="0" x="673.11" y="485.26" angle="68.91" type="DEFAULT_VEHTYPE" speed="13.76" pos="346.16" lane="a78[0]_0" slope="0.00"/>
        <vehicle id="1" x="1609.19" y="823.44" angle="92.61" type="DEFAULT_VEHTYPE" speed="12.04" pos="67.05" lane="a122_1" slope="0.00"/>
    </timestep>
    <timestep time="31.00">
        <vehicle id="0" x="685.81" y="490.16" angle="68.91" type="DEFAULT_VEHTYPE" speed="13.61" pos="359.78" lane="a78[0]_0" slope="0.00"/>
        <vehicle id="1" x="1621.48" y="822.88" angle="92.61" type="DEFAULT_VEHTYPE" speed="12.31" pos="79.36" lane="a122_1" slope="0.00"/>
    </timestep>
    <timestep time="32.00">
        <vehicle id="0" x="699.48" y="495.44" angle="68.91" type="DEFAULT_VEHTYPE" speed="14.65" pos="374.42" lane="a78[0]_0" slope="0.00"/>
        <vehicle id="1" x="1633.77" y="822.32" angle="92.61" type="DEFAULT_VEHTYPE" speed="12.30" pos="91.66" lane="a122_1" slope="0.00"/>
    </timestep>
    <timestep time="33.00">
        <vehicle id="0" x="712.67" y="500.53" angle="68.91" type="DEFAULT_VEHTYPE" speed="14.14" pos="388.57" lane="a78[0]_0" slope="0.00"/>
        <vehicle id="1" x="1646.72" y="821.52" angle="93.81" type="DEFAULT_VEHTYPE" speed="12.97" pos="104.63" lane="a122_1" slope="0.00"/>
    </timestep>
    <timestep time="34.00">
        <vehicle id="0" x="725.93" y="505.64" angle="68.91" type="DEFAULT_VEHTYPE" speed="14.21" pos="402.77" lane="a78[0]_0" slope="0.00"/>
        <vehicle id="1" x="1659.49" y="820.67" angle="93.81" type="DEFAULT_VEHTYPE" speed="12.79" pos="117.43" lane="a122_1" slope="0.00"/>
    </timestep>
    <timestep time="35.00">
        <vehicle id="0" x="738.83" y="510.20" angle="73.40" type="DEFAULT_VEHTYPE" speed="13.73" pos="2.80" lane=":a45_0_0" slope="0.00"/>
        <vehicle id="1" x="1671.64" y="819.86" angle="93.81" type="DEFAULT_VEHTYPE" speed="12.18" pos="129.61" lane="a122_1" slope="0.00"/>
    </timestep>
    <timestep time="36.00">
        <vehicle id="0" x="751.64" y="516.82" angle="70.75" type="DEFAULT_VEHTYPE" speed="14.44" pos="9.09" lane="a56a_1" slope="0.00"/>
        <vehicle id="1" x="1684.22" y="819.02" angle="93.81" type="DEFAULT_VEHTYPE" speed="12.61" pos="142.22" lane="a122_1" slope="0.00"/>
    </timestep>
    <timestep time="37.00">
        <vehicle id="0" x="766.11" y="518.57" angle="69.90" type="DEFAULT_VEHTYPE" speed="14.22" pos="5.27" lane=":a56m_1_0" slope="0.00"/>
        <vehicle id="1" x="1696.37" y="818.21" angle="93.81" type="DEFAULT_VEHTYPE" speed="12.18" pos="154.40" lane="a122_1" slope="0.00"/>
    </timestep>
    <timestep time="38.00">
        <vehicle id="0" x="775.17" y="525.37" angle="69.33" type="DEFAULT_VEHTYPE" speed="10.85" pos="7.03" lane="a56b_1" slope="0.00"/>
        <vehicle id="1" x="1708.64" y="817.44" angle="93.25" type="DEFAULT_VEHTYPE" speed="12.29" pos="166.69" lane="a122_1" slope="0.00"/>
    </timestep>
    <timestep time="39.00">
        <vehicle id="0" x="781.11" y="527.61" angle="69.33" type="DEFAULT_VEHTYPE" speed="6.35" pos="13.39" lane="a56b_1" slope="0.00"/>
        <vehicle id="1" x="1720.65" y="817.05" angle="91.36" type="DEFAULT_VEHTYPE" speed="12.01" pos="178.71" lane="a122_1" slope="0.00"/>
    </timestep>
    <timestep time="40.00">
        <vehicle id="0" x="788.91" y="529.74" angle="77.81" type="DEFAULT_VEHTYPE" speed="8.12" pos="5.39" lane=":a20b_0_1" slope="0.00"/>
        <vehicle id="1" x="1733.12" y="816.75" angle="91.36" type="DEFAULT_VEHTYPE" speed="12.48" pos="191.19" lane="a122_1" slope="0.00"/>
    </timestep>
    <timestep time="41.00">
        <vehicle id="0" x="795.60" y="523.78" angle="118.64" type="DEFAULT_VEHTYPE" speed="8.94" pos="3.40" lane=":a20c_1_0" slope="0.00"/>
        <vehicle id="1" x="1745.38" y="819.66" angle="91.36" type="DEFAULT_VEHTYPE" speed="12.17" pos="203.36" lane="a122_2" slope="0.00"/>
    </timestep>
    <timestep time="42.00">
        <vehicle id="0" x="805.61" y="521.65" angle="93.28" type="DEFAULT_VEHTYPE" speed="9.45" pos="4.58" lane=":a39a_2_0" slope="0.00"/>
        <vehicle id="1" x="1757.84" y="819.65" angle="87.97" type="DEFAULT_VEHTYPE" speed="12.65" pos="4.09" lane=":a0_2_1" slope="0.00"/>
    </timestep>
    <timestep time="43.00">
        <vehicle id="0" x="814.63" y="525.04" angle="68.49" type="DEFAULT_VEHTYPE" speed="9.14" pos="6.13" lane=":a39_1_0" slope="0.00"/>
        <vehicle id="1" x="1768.92" y="822.90" angle="73.59" type="DEFAULT_VEHTYPE" speed="11.87" pos="4.00" lane="a1b_1" slope="0.00"/>
    </timestep>
    <timestep time="44.00">
        <vehicle id="0" x="823.17" y="534.04" angle="31.33" type="DEFAULT_VEHTYPE" speed="11.69" pos="1.20" lane=":a40_2_0" slope="0.00"/>
        <vehicle id="1" x="1780.88" y="826.34" angle="73.95" type="DEFAULT_VEHTYPE" speed="12.45" pos="16.46" lane="a1b_1" slope="0.00"/>
    </timestep>
    <timestep time="45.00">
        <vehicle id="0" x="823.67" y="547.69" angle="350.72" type="DEFAULT_VEHTYPE" speed="12.88" pos="14.08" lane=":a40_2_0" slope="0.00"/>
        <vehicle id="1" x="1792.67" y="829.73" angle="73.95" type="DEFAULT_VEHTYPE" speed="12.27" pos="28.72" lane="a1b_1" slope="0.00"/>
    </timestep>
    <timestep time="46.00">
        <vehicle id="0" x="818.04" y="556.99" angle="323.35" type="DEFAULT_VEHTYPE" speed="10.47" pos="4.33" lane="a53[1][0]_0" slope="0.00"/>
        <vehicle id="1" x="1804.95" y="833.26" angle="73.95" type="DEFAULT_VEHTYPE" speed="12.77" pos="41.50" lane="a1b_1" slope="0.00"/>
    </timestep>
    <timestep time="47.00">
        <vehicle id="0" x="816.31" y="565.31" angle="0.89" type="DEFAULT_VEHTYPE" speed="8.84" pos="2.30" lane="a79_0" slope="0.00"/>
        <vehicle id="1" x="1814.93" y="836.13" angle="73.95" type="DEFAULT_VEHTYPE" speed="10.39" pos="51.89" lane="a1b_1" slope="0.00"/>
    </timestep>
    <timestep time="48.00">
        <vehicle id="0" x="817.80" y="575.45" angle="16.33" type="DEFAULT_VEHTYPE" speed="10.35" pos="12.65" lane="a79_0" slope="0.00"/>
        <vehicle id="1" x="1820.59" y="837.76" angle="73.95" type="DEFAULT_VEHTYPE" speed="5.89" pos="57.77" lane="a1b_1" slope="0.00"/>
    </timestep>
    <timestep time="49.00">
        <vehicle id="0" x="822.46" y="587.09" angle="21.96" type="DEFAULT_VEHTYPE" speed="12.53" pos="25.18" lane="a79_0" slope="0.00"/>
        <vehicle id="1" x="1822.01" y="838.17" angle="73.95" type="DEFAULT_VEHTYPE" speed="1.48" pos="59.25" lane="a1b_1" slope="0.00"/>
    </timestep>
    <timestep time="50.00">
        <vehicle id="0" x="827.91" y="600.60" angle="21.96" type="DEFAULT_VEHTYPE" speed="14.57" pos="39.75" lane="a79_0" slope="0.00"/>
        <vehicle id="1" x="1822.11" y="838.20" angle="73.95" type="DEFAULT_VEHTYPE" speed="0.10" pos="59.36" lane="a1b_1" slope="0.00"/>
    </timestep>
    <timestep time="51.00">
        <vehicle id="0" x="833.18" y="613.67" angle="21.96" type="DEFAULT_VEHTYPE" speed="14.09" pos="53.85" lane="a79_0" slope="0.00"/>
        <vehicle id="1" x="1822.14" y="838.21" angle="73.95" type="DEFAULT_VEHTYPE" speed="0.03" pos="59.39" lane="a1b_1" slope="0.00"/>
    </timestep>
    <timestep time="52.00">
        <vehicle id="0" x="838.36" y="626.52" angle="21.96" type="DEFAULT_VEHTYPE" speed="13.85" pos="67.70" lane="a79_0" slope="0.00"/>
        <vehicle id="1" x="1822.16" y="838.21" angle="73.95" type="DEFAULT_VEHTYPE" speed="0.02" pos="59.41" lane="a1b_1" slope="0.00"/>
    </timestep>
    <timestep time="53.00">
        <vehicle id="0" x="843.46" y="639.09" angle="22.33" type="DEFAULT_VEHTYPE" speed="13.56" pos="81.27" lane="a79_0" slope="0.00"/>
        <vehicle id="1" x="1822.16" y="838.21" angle="73.95" type="DEFAULT_VEHTYPE" speed="0.00" pos="59.41" lane="a1b_1" slope="0.00"/>
    </timestep>
    <timestep time="54.00">
        <vehicle id="0" x="849.03" y="652.06" angle="23.22" type="DEFAULT_VEHTYPE" speed="14.12" pos="95.38" lane="a79_0" slope="0.00"/>
        <vehicle id="1" x="1822.16" y="838.21" angle="73.95" type="DEFAULT_VEHTYPE" speed="0.00" pos="59.41" lane="a1b_1" slope="0.00"/>
    </timestep>
    <timestep time="55.00">
        <vehicle id="0" x="854.69" y="665.25" angle="23.22" type="DEFAULT_VEHTYPE" speed="14.35" pos="109.74" lane="a79_0" slope="0.00"/>
        <vehicle id="1" x="1822.16" y="838.21" angle="73.95" type="DEFAULT_VEHTYPE" speed="0.00" pos="59.41" lane="a1b_1" slope="0.00"/>
    </timestep>
    <timestep time="56.00">
        <vehicle id="0" x="860.19" y="678.06" angle="23.22" type="DEFAULT_VEHTYPE" speed="13.94" pos="123.68" lane="a79_0" slope="0.00"/>
        <vehicle id="1" x="1822.16" y="838.21" angle="73.95" type="DEFAULT_VEHTYPE" speed="0.00" pos="59.41" lane="a1b_1" slope="0.00"/>
    </timestep>
    <timestep time="57.00">
        <vehicle id="0" x="865.85" y="691.26" angle="23.22" type="DEFAULT_VEHTYPE" speed="14.36" pos="138.04" lane="a79_0" slope="0.00"/>
        <vehicle id="1" x="1823.04" y="835.13" angle="73.95" type="DEFAULT_VEHTYPE" speed="0.00" pos="59.41" lane="a1b_0" slope="0.00"/>
    </timestep>
    <timestep time="58.00">
        <vehicle id="0" x="871.43" y="704.06" angle="24.18" type="DEFAULT_VEHTYPE" speed="13.96" pos="1.10" lane=":a23_3_0" slope="0.00"/>
        <vehicle id="1" x="1823.04" y="835.13" angle="73.95" type="DEFAULT_VEHTYPE" speed="0.00" pos="59.41" lane="a1b_0" slope="0.00"/>
    </timestep>
    <timestep time="59.00">
        <vehicle id="0" x="877.88" y="716.42" angle="27.56" type="DEFAULT_VEHTYPE" speed="13.91" pos="15.01" lane=":a23_3_0" slope="0.00"/>
        <vehicle id="1" x="1823.04" y="835.13" angle="73.95" type="DEFAULT_VEHTYPE" speed="0.00" pos="59.41" lane="a1b_0" slope="0.00"/>
    </timestep>
    <timestep time="60.00">
        <vehicle id="0" x="884.41" y="728.94" angle="27.56" type="DEFAULT_VEHTYPE" speed="14.10" pos="29.11" lane=":a23_3_0" slope="0.00"/>
        <vehicle id="1" x="1823.04" y="835.13" angle="73.95" type="DEFAULT_VEHTYPE" speed="0.00" pos="59.41" lane="a1b_0" slope="0.00"/>
    </timestep>
    <timestep time="61.00">
        <vehicle id="0" x="889.97" y="741.62" angle="22.22" type="DEFAULT_VEHTYPE" speed="13.85" pos="10.17" lane="a68_0" slope="0.00"/>
        <vehicle id="1" x="1823.04" y="835.13" angle="73.95" type="DEFAULT_VEHTYPE" speed="0.00" pos="59.41" lane="a1b_0" slope="0.00"/>
    </timestep>
    <timestep time="62.00">
        <vehicle id="0" x="895.32" y="754.73" angle="22.22" type="DEFAULT_VEHTYPE" speed="14.15" pos="24.31" lane="a68_0" slope="0.00"/>
        <vehicle id="1" x="1825.36" y="835.89" angle="73.00" type="DEFAULT_VEHTYPE" speed="2.42" pos="1.42" lane=":a1b_0_0" slope="0.00"/>
    </timestep>
    <timestep time="63.00">
        <vehicle id="0" x="900.63" y="767.74" angle="22.22" type="DEFAULT_VEHTYPE" speed="14.06" pos="38.37" lane="a68_0" slope="0.00"/>
        <vehicle id="1" x="1829.18" y="837.30" angle="69.87" type="DEFAULT_VEHTYPE" speed="4.03" pos="5.45" lane=":a1b_0_0" slope="0.00"/>
    </timestep>
    <timestep time="64.00">
        <vehicle id="0" x="905.76" y="780.56" angle="21.52" type="DEFAULT_VEHTYPE" speed="13.80" pos="52.16" lane="a68_0" slope="0.00"/>
        <vehicle id="1" x="1834.80" y="840.49" angle="59.95" type="DEFAULT_VEHTYPE" speed="6.38" pos="11.84" lane=":a1b_0_0" slope="0.00"/>
        <vehicle id="2" x="5.36" y="1061.58" angle="84.69" type="DEFAULT_VEHTYPE" speed="0.00" pos="5.10" lane="b1[0]_0" slope="0.00"/>
    </timestep>
    <timestep time="65.00">
        <vehicle id="0" x="911.05" y="793.97" angle="21.52" type="DEFAULT_VEHTYPE" speed="14.41" pos="66.57" lane="a68_0" slope="0.00"/>
        <vehicle id="1" x="1841.87" y="844.04" angle="63.05" type="DEFAULT_VEHTYPE" speed="7.85" pos="2.52" lane=":a1_3_0" slope="0.00"/>
        <vehicle id="2" x="7.33" y="1061.76" angle="84.69" type="DEFAULT_VEHTYPE" speed="1.99" pos="7.09" lane="b1[0]_0" slope="0.00"/>
    </timestep>
    <timestep time="66.00">
        <vehicle id="0" x="918.33" y="805.87" angle="25.71" type="DEFAULT_VEHTYPE" speed="13.97" pos="2.99" lane="a11_0" slope="0.00"/>
        <vehicle id="1" x="1847.48" y="849.55" angle="37.94" type="DEFAULT_VEHTYPE" speed="8.08" pos="10.61" lane=":a1_3_0" slope="0.00"/>
        <vehicle id="2" x="10.79" y="1062.08" angle="84.69" type="DEFAULT_VEHTYPE" speed="3.48" pos="10.57" lane="b1[0]_0" slope="0.00"/>
    </timestep>
    <timestep time="67.00">
        <vehicle id="0" x="923.69" y="818.95" angle="22.30" type="DEFAULT_VEHTYPE" speed="14.14" pos="17.13" lane="a11_0" slope="0.00"/>
        <vehicle id="1" x="1844.00" y="856.09" angle="351.89" type="DEFAULT_VEHTYPE" speed="7.45" pos="3.24" lane="a204a[0]_1" slope="0.00"/>
        <vehicle id="2" x="16.24" y="1062.59" angle="84.69" type="DEFAULT_VEHTYPE" speed="5.49" pos="16.06" lane="b1[0]_0" slope="0.00"/>
    </timestep>
    <timestep time="68.00">
        <vehicle id="0" x="927.35" y="827.87" angle="22.30" type="DEFAULT_VEHTYPE" speed="9.64" pos="26.77" lane="a11_0" slope="0.00"/>
        <vehicle id="1" x="1841.88" y="865.22" angle="346.88" type="DEFAULT_VEHTYPE" speed="9.37" pos="12.62" lane="a204a[0]_1" slope="0.00"/>
        <vehicle id="2" x="23.16" y="1063.23" angle="84.69" type="DEFAULT_VEHTYPE" speed="6.97" pos="23.03" lane="b1[0]_0" slope="0.00"/>
    </timestep>
    <timestep time="69.00">
        <vehicle id="0" x="929.30" y="832.62" angle="22.30" type="DEFAULT_VEHTYPE" speed="5.14" pos="31.91" lane="a11_0" slope="0.00"/>
        <vehicle id="1" x="1839.36" y="876.02" angle="346.88" type="DEFAULT_VEHTYPE" speed="11.10" pos="23.71" lane="a204a[0]_1" slope="0.00"/>
        <vehicle id="2" x="31.47" y="1064.01" angle="84.69" type="DEFAULT_VEHTYPE" speed="8.37" pos="31.41" lane="b1[0]_0" slope="0.00"/>
    </timestep>
    <timestep time="70.00">
        <vehicle id="0" x="929.65" y="833.48" angle="22.30" type="DEFAULT_VEHTYPE" speed="0.92" pos="32.83" lane="a11_0" slope="0.00"/>
        <vehicle id="1" x="1836.53" y="888.13" angle="346.85" type="DEFAULT_VEHTYPE" speed="12.44" pos="36.15" lane="a204a[0]_1" slope="0.00"/>
        <vehicle id="2" x="41.62" y="1064.95" angle="84.69" type="DEFAULT_VEHTYPE" speed="10.23" pos="41.64" lane="b1[0]_0" slope="0.00"/>
    </timestep>
    <timestep time="71.00">
        <vehicle id="0" x="929.67" y="833.52" angle="22.30" type="DEFAULT_VEHTYPE" speed="0.05" pos="32.88" lane="a11_0" slope="0.00"/>
        <vehicle id="1" x="1833.54" y="900.65" angle="346.55" type="DEFAULT_VEHTYPE" speed="12.87" pos="49.02" lane="a204a[0]_1" slope="0.00"/>
        <vehicle id="2" x="54.02" y="1066.10" angle="84.69" type="DEFAULT_VEHTYPE" speed="12.49" pos="54.12" lane="b1[0]_0" slope="0.00"/>
    </timestep>
    <timestep time="72.00">
        <vehicle id="0" x="929.68" y="833.54" angle="22.30" type="DEFAULT_VEHTYPE" speed="0.02" pos="32.91" lane="a11_0" slope="0.00"/>
        <vehicle id="1" x="1830.60" y="912.94" angle="346.55" type="DEFAULT_VEHTYPE" speed="12.63" pos="61.65" lane="a204a[0]_1" slope="0.00"/>
        <vehicle id="2" x="67.63" y="1067.37" angle="84.69" type="DEFAULT_VEHTYPE" speed="13.71" pos="67.83" lane="b1[0]_0" slope="0.00"/>
    </timestep>
    <timestep time="73.00">
        <vehicle id="0" x="929.68" y="833.55" angle="22.30" type="DEFAULT_VEHTYPE" speed="0.01" pos="32.92" lane="a11_0" slope="0.00"/>
        <vehicle id="1" x="1827.73" y="924.92" angle="346.55" type="DEFAULT_VEHTYPE" speed="12.32" pos="73.97" lane="a204a[0]_1" slope="0.00"/>
        <vehicle id="2" x="81.14" y="1068.62" angle="84.69" type="DEFAULT_VEHTYPE" speed="13.61" pos="81.45" lane="b1[0]_0" slope="0.00"/>
        <vehicle id="3" x="1335.81" y="828.55" angle="90.00" type="DEFAULT_VEHTYPE" speed="0.00" pos="5.10" lane="a161_0" slope="0.00"/>
    </timestep>
    <timestep time="74.00">
        <vehicle id="0" x="929.68" y="833.55" angle="22.30" type="DEFAULT_VEHTYPE" speed="0.00" pos="32.92" lane="a11_0" slope="0.00"/>
        <vehicle id="1" x="1824.78" y="937.27" angle="346.55" type="DEFAULT_VEHTYPE" speed="12.70" pos="86.67" lane="a204a[0]_1" slope="0.00"/>
        <vehicle id="2" x="94.90" y="1069.90" angle="84.69" type="DEFAULT_VEHTYPE" speed="13.87" pos="95.31" lane="b1[0]_0" slope="0.00"/>
        <vehicle id="3" x="1337.49" y="828.55" angle="90.00" type="DEFAULT_VEHTYPE" speed="1.69" pos="6.79" lane="a161_0" slope="0.00"/>
    </timestep>
    <timestep time="75.00">
        <vehicle id="0" x="929.68" y="833.55" angle="22.30" type="DEFAULT_VEHTYPE" speed="0.00" pos="32.92" lane="a11_0" slope="0.00"/>
        <vehicle id="1" x="1821.91" y="949.25" angle="346.55" type="DEFAULT_VEHTYPE" speed="12.32" pos="98.99" lane="a204a[0]_1" slope="0.00"/>
        <vehicle id="2" x="107.89" y="1071.11" angle="84.69" type="DEFAULT_VEHTYPE" speed="13.09" pos="108.41" lane="b1[0]_0" slope="0.00"/>
        <vehicle id="3" x="1340.68" y="828.55" angle="90.00" type="DEFAULT_VEHTYPE" speed="3.19" pos="9.97" lane="a161_0" slope="0.00"/>
    </timestep>
    <timestep time="76.00">
        <vehicle id="0" x="929.68" y="833.55" angle="22.30" type="DEFAULT_VEHTYPE" speed="0.00" pos="32.92" lane="a11_0" slope="0.00"/>
        <vehicle id="1" x="1818.90" y="961.85" angle="346.55" type="DEFAULT_VEHTYPE" speed="12.96" pos="111.95" lane="a204a[0]_1" slope="0.00"/>
        <vehicle id="2" x="121.57" y="1071.61" angle="93.63" type="DEFAULT_VEHTYPE" speed="13.80" pos="122.21" lane="b1[0]_0" slope="0.00"/>
        <vehicle id="3" x="1345.91" y="828.55" angle="90.00" type="DEFAULT_VEHTYPE" speed="5.24" pos="15.21" lane="a161_0" slope="0.00"/>
    </timestep>
    <timestep time="77.00">
        <vehicle id="0" x="929.68" y="833.55" angle="22.30" type="DEFAULT_VEHTYPE" speed="0.00" pos="32.92" lane="a11_0" slope="0.00"/>
        <vehicle id="1" x="1816.07" y="973.69" angle="346.55" type="DEFAULT_VEHTYPE" speed="12.17" pos="124.12" lane="a204a[0]_1" slope="0.00"/>
        <vehicle id="2" x="134.19" y="1069.67" angle="98.74" type="DEFAULT_VEHTYPE" speed="12.81" pos="135.02" lane="b1[0]_0" slope="0.00"/>
        <vehicle id="3" x="1352.97" y="828.55" angle="90.00" type="DEFAULT_VEHTYPE" speed="7.06" pos="22.27" lane="a161_0" slope="0.00"/>
    </timestep>
    <timestep time="78.00">
        <vehicle id="0" x="930.26" y="835.12" angle="21.65" type="DEFAULT_VEHTYPE" speed="1.68" pos="0.68" lane=":a9_8_0" slope="0.00"/>
        <vehicle id="1" x="1813.23" y="985.54" angle="346.55" type="DEFAULT_VEHTYPE" speed="12.19" pos="136.31" lane="a204a[0]_1" slope="0.00"/>
        <vehicle id="2" x="147.47" y="1067.63" angle="98.74" type="DEFAULT_VEHTYPE" speed="13.48" pos="148.50" lane="b1[0]_0" slope="0.00"/>
        <vehicle id="3" x="1361.64" y="831.75" angle="90.00" type="DEFAULT_VEHTYPE" speed="8.66" pos="30.93" lane="a161_1" slope="0.00"/>
    </timestep>
    <timestep time="79.00">
        <vehicle id="0" x="931.52" y="839.11" angle="17.59" type="DEFAULT_VEHTYPE" speed="4.18" pos="4.86" lane=":a9_8_0" slope="0.00"/>
        <vehicle id="1" x="1810.32" y="997.73" angle="346.55" type="DEFAULT_VEHTYPE" speed="12.53" pos="148.83" lane="a204a[0]_1" slope="0.00"/>
        <vehicle id="2" x="161.15" y="1065.52" angle="98.74" type="DEFAULT_VEHTYPE" speed="13.88" pos="162.38" lane="b1[0]_0" slope="0.00"/>
        <vehicle id="3" x="1371.64" y="831.75" angle="90.00" type="DEFAULT_VEHTYPE" speed="10.00" pos="40.93" lane="a161_1" slope="0.00"/>
    </timestep>
    <timestep time="80.00">
        <vehicle id="0" x="933.41" y="845.19" angle="17.29" type="DEFAULT_VEHTYPE" speed="6.37" pos="11.23" lane=":a9_8_0" slope="0.00"/>
        <vehicle id="1" x="1807.50" y="1009.51" angle="346.55" type="DEFAULT_VEHTYPE" speed="12.12" pos="160.95" lane="a204a[0]_1" slope="0.00"/>
        <vehicle id="2" x="173.59" y="1063.06" angle="104.99" type="DEFAULT_VEHTYPE" speed="12.76" pos="175.14" lane="b1[0]_0" slope="0.00"/>