<?xml version="1.0" encoding="UTF-8"?>

<!-- generated on 2025-03-21 17:55:09 by Eclipse SUMO sumo Version 1.21.0
<sumoConfiguration xmlns:xsi="http://www.w3.org/2001/XMLSchema-instance" xsi:noNamespaceSchemaLocation="http://sumo.dlr.de/xsd/sumoConfiguration.xsd">

    <input>
        <net-file value="${STATICPATH}/joined_lanes.net.xml"/>
        <route-files value="${SIMULATIONPATH}/generatedRoutes.rou.xml"/>
        <additional-files value="${STATICPATH}/detectors.add.xml,${STATICPATH}/joined_vtypes.add.xml,${STATICPATH}/joined_tls.add.xml"/>
    </input>

    <output>
        <fcd-output value="${SIMULATIONPATH}/fcd.xml"/>
        <queue-output value="${SIMULATIONPATH}/queue.xml"/>
        <summary-output value="${SIMULATIONPATH}/summary.xml"/>
        <tripinfo-output value="${SIMULATIONPATH}/tripinfos.xml"/>
        <vehroute-output value="${SIMULATIONPATH}/vehroute.xml"/>
        <save-state.prefix value="configs\state"/>
    </output>

    <processing>
        <ignore-junction-blocker value="1"/>
        <ignore-route-errors value="true"/>
        <time-to-teleport value="-1"/>
    </processing>

    <report>
        <log value="C:/Users/fabio/Desktop/sumo_log.txt"/>
        <no-step-log value="true"/>
    </report>

    <emissions>
        <phemlight-path value="configs\./PHEMlight/"/>
    </emissions>

    <traci_server>
        <remote-port value="60232"/>
    </traci_server>

</sumoConfiguration>
-->

<tripinfos xmlns:xsi="http://www.w3.org/2001/XMLSchema-instance" xsi:noNamespaceSchemaLocation="http://sumo.dlr.de/xsd/tripinfo_file.xsd">
    <tripinfo id="0" depart="2.00" departLane="a78[0]_0" departPos="5.10" departSpeed="0.00" departDelay="0.80" arrival="197.00" arrivalLane="b53a_0" arrivalPos="257.19" arrivalSpeed="14.47" duration="195.00" routeLength="1975.46" waitingTime="30.00" waitingCount="2" stopTime="0.00" timeLoss="58.06" rerouteNo="0" devices="vehroute_0 tripinfo_0 fcd_0" vType="DEFAULT_VEHTYPE" speedFactor="1.06" vaporized=""/>
    <tripinfo id="2" depart="64.00" departLane="b1[0]_0" departPos="5.10" departSpeed="0.00" departDelay="0.32" arrival="293.00" arrivalLane="a116_0" arrivalPos="74.64" arrivalSpeed="13.64" duration="229.00" routeLength="2084.09" waitingTime="53.00" waitingCount="2" stopTime="0.00" timeLoss="78.25" rerouteNo="0" devices="vehroute_2 tripinfo_2 fcd_2" vType="DEFAULT_VEHTYPE" speedFactor="1.01" vaporized=""/>
    <tripinfo id="4" depart="83.00" departLane="a195_0" departPos="5.10" departSpeed="0.00" departDelay="0.58" arrival="308.00" arrivalLane="b2[1][1][1]b_0" arrivalPos="325.74" arrivalSpeed="13.93" duration="225.00" routeLength="2441.66" waitingTime="25.00" waitingCount="1" stopTime="0.00" timeLoss="51.14" rerouteNo="0" devices="vehroute_4 tripinfo_4 fcd_4" vType="DEFAULT_VEHTYPE" speedFactor="1.03" vaporized=""/>
    <tripinfo id="1" depart="5.00" departLane="a161_0" departPos="5.10" departSpeed="0.00" departDelay="0.55" arrival="351.00" arrivalLane="b21_1" arrivalPos="90.26" arrivalSpeed="12.90" duration="346.00" routeLength="2631.61" waitingTime="108.00" waitingCount="3" stopTime="0.00" timeLoss="141.63" rerouteNo="0" devices="vehroute_1 tripinfo_1 fcd_1" vType="DEFAULT_VEHTYPE" speedFactor="0.94" vaporized=""/>
    <tripinfo id="3" depart="73.00" departLane="a161_0" departPos="5.10" departSpeed="0.00" departDelay="0.91" arrival="354.00" arrivalLane="b21_1" arrivalPos="90.26" arrivalSpeed="13.94" duration="281.00" routeLength="2627.12" waitingTime="74.00" waitingCount="1" stopTime="0.00" timeLoss="103.87" rerouteNo="0" devices="vehroute_3 tripinfo_3 fcd_3" vType="DEFAULT_VEHTYPE" speedFactor="1.08" vaporized=""/>
    <tripinfo id="5" depart="228.00" departLane="a13_0" departPos="5.10" departSpeed="0.00" departDelay="0.81" arrival="472.00" arrivalLane="b53a_0" arrivalPos="257.19" arrivalSpeed="10.49" duration="244.00" routeLength="1902.90" waitingTime="42.00" waitingCount="3" stopTime="0.00" timeLoss="76.80" rerouteNo="0" devices="vehroute_5 tripinfo_5 fcd_5" vType="DEFAULT_VEHTYPE" speedFactor="0.83" vaporized=""/>
    <tripinfo id="6" depart="269.00" departLane="a195_0" departPos="5.10" departSpeed="0.00" departDelay="0.33" arrival="573.00" arrivalLane="a80_0" arrivalPos="125.15" arrivalSpeed="13.27" duration="304.00" routeLength="1819.72" waitingTime="137.00" waitingCount="4" stopTime="0.00" timeLoss="175.42" rerouteNo="0" devices="vehroute_6 tripinfo_6 fcd_6" vType="DEFAULT_VEHTYPE" speedFactor="1.05" vaporized=""/>
    <tripinfo id="8" depart="335.00" departLane="a195_0" departPos="5.10" departSpeed="0.00" departDelay="0.46" arrival="588.00" arrivalLane="b2[1][1][1]b_0" arrivalPos="325.74" arrivalSpeed="12.09" duration="253.00" routeLength="2441.66" waitingTime="36.00" waitingCount="2" stopTime="0.00" timeLoss="62.23" rerouteNo="0" devices="vehroute_8 tripinfo_8 fcd_8" vType="DEFAULT_VEHTYPE" speedFactor="0.94" vaporized=""/>
    <tripinfo id="7" depart="288.00" departLane="a78[0]_0" departPos="5.10" departSpeed="0.00" departDelay="0.12" arrival="589.00" arrivalLane="b53a_0" arrivalPos="257.19" arrivalSpeed="12.09" duration="301.00" routeLength="1975.46" waitingTime="105.00" waitingCount="3" stopTime="0.00" timeLoss="137.70" rerouteNo="0" devices="vehroute_7 tripinfo_7 fcd_7" vType="DEFAULT_VEHTYPE" speedFactor="0.89" vaporized=""/>
    <tripinfo id="10" depart="432.00" departLane="a210_0" departPos="5.10" departSpeed="0.00" departDelay="0.62" arrival="673.00" arrivalLane="b3[1]_0" arrivalPos="172.58" arrivalSpeed="14.04" duration="241.00" routeLength="2778.17" waitingTime="27.00" waitingCount="3" stopTime="0.00" timeLoss="56.54" rerouteNo="0" devices="vehroute_10 tripinfo_10 fcd_10" vType="DEFAULT_VEHTYPE" speedFactor="1.09" vaporized=""/>
    <tripinfo id="9" depart="424.00" departLane="a78[0]_0" departPos="5.10" departSpeed="0.00" departDelay="0.46" arrival="715.00" arrivalLane="b53a_0" arrivalPos="257.19" arrivalSpeed="11.37" duration="291.00" routeLength="1975.46" waitingTime="90.00" waitingCount="3" stopTime="0.00" timeLoss="121.43" rerouteNo="0" devices="vehroute_9 tripinfo_9 fcd_9" vType="DEFAULT_VEHTYPE" speedFactor="0.86" vaporized=""/>
    <tripinfo id="11" depart="439.00" departLane="a161_0" departPos="5.10" departSpeed="0.00" departDelay="0.66" arrival="719.00" arrivalLane="b21_1" arrivalPos="90.26" arrivalSpeed="13.86" duration="280.00" routeLength="2624.16" waitingTime="62.00" waitingCount="2" stopTime="0.00" timeLoss="93.24" rerouteNo="0" devices="vehroute_11 tripinfo_11 fcd_11" vType="DEFAULT_VEHTYPE" speedFactor="1.03" vaporized=""/>
    <tripinfo id="12" depart="440.00" departLane="a8_0" departPos="5.10" departSpeed="0.00" departDelay="0.67" arrival="725.00" arrivalLane="b4[1][1][0]_0" arrivalPos="170.25" arrivalSpeed="13.44" duration="285.00" routeLength="2317.36" waitingTime="81.00" waitingCount="4" stopTime="0.00" timeLoss="123.29" rerouteNo="0" devices="vehroute_12 tripinfo_12 fcd_12" vType="DEFAULT_VEHTYPE" speedFactor="1.05" vaporized=""/>
    <tripinfo id="13" depart="502.00" departLane="a161_0" departPos="5.10" departSpeed="0.00" departDelay="0.89" arrival="845.00" arrivalLane="b21_1" arrivalPos="90.26" arrivalSpeed="14.30" duration="343.00" routeLength="2628.65" waitingTime="123.00" waitingCount="5" stopTime="0.00" timeLoss="172.13" rerouteNo="0" devices="vehroute_13 tripinfo_13 fcd_13" vType="DEFAULT_VEHTYPE" speedFactor="1.12" vaporized=""/>
    <tripinfo id="14" depart="509.00" departLane="a161_0" departPos="5.10" departSpeed="0.00" departDelay="0.40" arrival="847.00" arrivalLane="b21_1" arrivalPos="90.26" arrivalSpeed="13.73" duration="338.00" routeLength="2627.12" waitingTime="100.00" waitingCount="3" stopTime="0.00" timeLoss="144.49" rerouteNo="0" devices="vehroute_14 tripinfo_14 fcd_14" vType="DEFAULT_VEHTYPE" speedFactor="0.99" vaporized=""/>
    <tripinfo id="15" depart="554.00" departLane="a210_0" departPos="5.10" departSpeed="0.00" departDelay="0.35" arrival="847.00" arrivalLane="b3[1]_0" arrivalPos="172.58" arrivalSpeed="12.47" duration="293.00" routeLength="2778.17" waitingTime="44.00" waitingCount="2" stopTime="0.00" timeLoss="76.21" rerouteNo="0" devices="vehroute_15 tripinfo_15 fcd_15" vType="DEFAULT_VEHTYPE" speedFactor="0.93" vaporized=""/>
    <tripinfo id="16" depart="574.00" departLane="a210_0" departPos="5.10" departSpeed="0.00" departDelay="0.51" arrival="851.00" arrivalLane="b21_1" arrivalPos="90.26" arrivalSpeed="11.83" duration="277.00" routeLength="2367.70" waitingTime="51.00" waitingCount="2" stopTime="0.00" timeLoss="81.73" rerouteNo="0" devices="vehroute_16 tripinfo_16 fcd_16" vType="DEFAULT_VEHTYPE" speedFactor="0.88" vaporized=""/>
    <tripinfo id="18" depart="615.00" departLane="a161_0" departPos="5.10" departSpeed="0.00" departDelay="0.61" arrival="855.00" arrivalLane="b21_1" arrivalPos="90.26" arrivalSpeed="12.99" duration="240.00" routeLength="2631.61" waitingTime="10.00" waitingCount="1" stopTime="0.00" timeLoss="34.58" rerouteNo="0" devices="vehroute_18 tripinfo_18 fcd_18" vType="DEFAULT_VEHTYPE" speedFactor="0.94" vaporized=""/>
    <tripinfo id="19" depart="640.00" departLane="a210_0" departPos="5.10" departSpeed="0.00" departDelay="0.04" arrival="889.00" arrivalLane="b55_0" arrivalPos="93.69" arrivalSpeed="15.54" duration="249.00" routeLength="1876.29" waitingTime="89.00" waitingCount="4" stopTime="0.00" timeLoss="129.80" rerouteNo="0" devices="vehroute_19 tripinfo_19 fcd_19" vType="DEFAULT_VEHTYPE" speedFactor="1.16" vaporized=""/>
    <tripinfo id="20" depart="691.00" departLane="a195_0" departPos="5.10" departSpeed="0.00" departDelay="0.58" arrival="917.00" arrivalLane="b2[1][1][1]b_0" arrivalPos="325.74" arrivalSpeed="13.99" duration="226.00" routeLength="2441.66" waitingTime="28.00" waitingCount="1" stopTime="0.00" timeLoss="50.00" rerouteNo="0" devices="vehroute_20 tripinfo_20 fcd_20" vType="DEFAULT_VEHTYPE" speedFactor="1.02" vaporized=""/>
    <tripinfo id="17" depart="583.00" departLane="a194_0" departPos="5.10" departSpeed="0.00" departDelay="0.65" arrival="1024.00" arrivalLane="b11[0]_0" arrivalPos="90.93" arrivalSpeed="12.74" duration="441.00" routeLength="3257.05" waitingTime="141.00" waitingCount="4" stopTime="0.00" timeLoss="187.40" rerouteNo="0" devices="vehroute_17 tripinfo_17 fcd_17" vType="DEFAULT_VEHTYPE" speedFactor="0.94" vaporized=""/>
    <tripinfo id="23" depart="806.00" departLane="a195_0" departPos="5.10" departSpeed="0.00" departDelay="0.99" arrival="1042.00" arrivalLane="b2[1][1][1]b_0" arrivalPos="325.74" arrivalSpeed="11.34" duration="236.00" routeLength="2441.66" waitingTime="4.00" waitingCount="2" stopTime="0.00" timeLoss="34.64" rerouteNo="0" devices="vehroute_23 tripinfo_23 fcd_23" vType="DEFAULT_VEHTYPE" speedFactor="0.89" vaporized=""/>
    <tripinfo id="29" depart="878.00" departLane="a78[0]_0" departPos="5.10" departSpeed="0.00" departDelay="0.84" arrival="1084.00" arrivalLane="b53a_0" arrivalPos="257.19" arrivalSpeed="12.93" duration="206.00" routeLength="1975.46" waitingTime="26.00" waitingCount="2" stopTime="0.00" timeLoss="50.35" rerouteNo="0" devices="vehroute_29 tripinfo_29 fcd_29" vType="DEFAULT_VEHTYPE" speedFactor="0.93" vaporized=""/>
    <tripinfo id="27" depart="838.00" departLane="a210_0" departPos="5.10" departSpeed="0.00" departDelay="0.48" arrival="1113.00" arrivalLane="b3[1]_0" arrivalPos="172.58" arrivalSpeed="12.16" duration="275.00" routeLength="2778.17" waitingTime="34.00" waitingCount="1" stopTime="0.00" timeLoss="62.54" rerouteNo="0" devices="vehroute_27 tripinfo_27 fcd_27" vType="DEFAULT_VEHTYPE" speedFactor="0.95" vaporized=""/>
    <tripinfo id="22" depart="766.00" departLane="a161_0" departPos="5.10" departSpeed="0.00" departDelay="2.86" arrival="1122.00" arrivalLane="b21_1" arrivalPos="90.26" arrivalSpeed="12.57" duration="356.00" routeLength="2631.61" waitingTime="123.00" waitingCount="3" stopTime="0.00" timeLoss="159.72" rerouteNo="0" devices="vehroute_22 tripinfo_22 fcd_22" vType="DEFAULT_VEHTYPE" speedFactor="0.97" vaporized=""/>
    <tripinfo id="21" depart="763.00" departLane="a161_0" departPos="5.10" departSpeed="0.00" departDelay="0.68" arrival="1124.00" arrivalLane="b21_1" arrivalPos="90.26" arrivalSpeed="13.85" duration="361.00" routeLength="2627.12" waitingTime="134.00" waitingCount="3" stopTime="0.00" timeLoss="171.27" rerouteNo="0" devices="vehroute_21 tripinfo_21 fcd_21" vType="DEFAULT_VEHTYPE" speedFactor="1.01" vaporized=""/>
    <tripinfo id="30" depart="926.00" departLane="a78[0]_0" departPos="5.10" departSpeed="0.00" departDelay="0.63" arrival="1153.00" arrivalLane="b53a_0" arrivalPos="257.19" arrivalSpeed="16.26" duration="227.00" routeLength="1972.63" waitingTime="78.00" waitingCount="2" stopTime="0.00" timeLoss="104.63" rerouteNo="0" devices="vehroute_30 tripinfo_30 fcd_30" vType="DEFAULT_VEHTYPE" speedFactor="1.18" vaporized=""/>
    <tripinfo id="28" depart="861.00" departLane="a161_0" departPos="5.10" departSpeed="0.00" departDelay="0.40" arrival="1204.00" arrivalLane="b21_1" arrivalPos="90.26" arrivalSpeed="15.39" duration="343.00" routeLength="2624.16" waitingTime="110.00" waitingCount="3" stopTime="0.00" timeLoss="173.83" rerouteNo="0" devices="vehroute_28 tripinfo_28 fcd_28" vType="DEFAULT_VEHTYPE" speedFactor="1.13" vaporized=""/>
    <tripinfo id="31" depart="956.00" departLane="a203[0]_0" departPos="5.10" departSpeed="0.00" departDelay="0.61" arrival="1209.00" arrivalLane="b23_0" arrivalPos="155.55" arrivalSpeed="15.60" duration="253.00" routeLength="2315.90" waitingTime="72.00" waitingCount="3" stopTime="0.00" timeLoss="106.95" rerouteNo="0" devices="vehroute_31 tripinfo_31 fcd_31" vType="DEFAULT_VEHTYPE" speedFactor="1.15" vaporized=""/>
    <tripinfo id="25" depart="825.00" departLane="a161_0" departPos="5.10" departSpeed="0.00" departDelay="0.98" arrival="1248.00" arrivalLane="b21_1" arrivalPos="90.26" arrivalSpeed="10.90" duration="423.00" routeLength="2624.16" waitingTime="171.00" waitingCount="3" stopTime="0.00" timeLoss="204.50" rerouteNo="0" devices="vehroute_25 tripinfo_25 fcd_25" vType="DEFAULT_VEHTYPE" speedFactor="0.87" vaporized=""/>
    <tripinfo id="26" depart="838.00" departLane="a161_0" departPos="5.10" departSpeed="0.00" departDelay="0.82" arrival="1250.00" arrivalLane="b21_1" arrivalPos="90.26" arrivalSpeed="12.17" duration="412.00" routeLength="2628.65" waitingTime="149.00" waitingCount="4" stopTime="0.00" timeLoss="203.23" rerouteNo="0" devices="vehroute_26 tripinfo_26 fcd_26" vType="DEFAULT_VEHTYPE" speedFactor="0.92" vaporized=""/>
    <tripinfo id="24" depart="819.00" departLane="a161_0" departPos="5.10" departSpeed="0.00" departDelay="0.51" arrival="1254.00" arrivalLane="b21_1" arrivalPos="90.26" arrivalSpeed="10.66" duration="435.00" routeLength="2627.12" waitingTime="165.00" waitingCount="3" stopTime="0.00" timeLoss="202.58" rerouteNo="0" devices="vehroute_24 tripinfo_24 fcd_24" vType="DEFAULT_VEHTYPE" speedFactor="0.83" vaporized=""/>
    <tripinfo id="35" depart="1084.00" departLane="a210_0" departPos="5.10" departSpeed="0.00" departDelay="0.93" arrival="1267.00" arrivalLane="b55_0" arrivalPos="93.69" arrivalSpeed="13.43" duration="183.00" routeLength="1876.29" waitingTime="21.00" waitingCount="1" stopTime="0.00" timeLoss="47.77" rerouteNo="0" devices="vehroute_35 tripinfo_35 fcd_35" vType="DEFAULT_VEHTYPE" speedFactor="1.02" vaporized=""/>
    <tripinfo id="33" depart="1007.00" departLane="a195_0" departPos="5.10" departSpeed="0.00" departDelay="0.07" arrival="1268.00" arrivalLane="b2[1][1][1]b_0" arrivalPos="325.74" arrivalSpeed="16.05" duration="261.00" routeLength="2441.66" waitingTime="84.00" waitingCount="1" stopTime="0.00" timeLoss="108.72" rerouteNo="0" devices="vehroute_33 tripinfo_33 fcd_33" vType="DEFAULT_VEHTYPE" speedFactor="1.17" vaporized=""/>
    <tripinfo id="34" depart="1071.00" departLane="a78[0]_0" departPos="5.10" departSpeed="0.00" departDelay="0.52" arrival="1312.00" arrivalLane="b53a_0" arrivalPos="257.19" arrivalSpeed="13.23" duration="241.00" routeLength="1975.46" waitingTime="68.00" waitingCount="2" stopTime="0.00" timeLoss="96.06" rerouteNo="0" devices="vehroute_34 tripinfo_34 fcd_34" vType="DEFAULT_VEHTYPE" speedFactor="0.99" vaporized=""/>
    <tripinfo id="32" depart="1000.00" departLane="a161_0" departPos="5.10" departSpeed="0.00" departDelay="0.09" arrival="1331.00" arrivalLane="b21_1" arrivalPos="90.26" arrivalSpeed="13.94" duration="331.00" routeLength="2631.61" waitingTime="110.00" waitingCount="3" stopTime="0.00" timeLoss="140.28" rerouteNo="0" devices="vehroute_32 tripinfo_32 fcd_32" vType="DEFAULT_VEHTYPE" speedFactor="1.01" vaporized=""/>
    <tripinfo id="37" depart="1144.00" departLane="a161_0" departPos="5.10" departSpeed="0.00" departDelay="0.89" arrival="1372.00" arrivalLane="b21_1" arrivalPos="90.26" arrivalSpeed="16.25" duration="228.00" routeLength="2627.12" waitingTime="28.00" waitingCount="2" stopTime="0.00" timeLoss="65.26" rerouteNo="0" devices="vehroute_37 tripinfo_37 fcd_37" vType="DEFAULT_VEHTYPE" speedFactor="1.18" vaporized=""/>
    <tripinfo id="36" depart="1130.00" departLane="a161_0" departPos="5.10" departSpeed="0.00" departDelay="0.58" arrival="1456.00" arrivalLane="b21_1" arrivalPos="90.26" arrivalSpeed="12.59" duration="326.00" routeLength="2631.61" waitingTime="99.00" waitingCount="2" stopTime="0.00" timeLoss="128.92" rerouteNo="0" devices="vehroute_36 tripinfo_36 fcd_36" vType="DEFAULT_VEHTYPE" speedFactor="0.97" vaporized=""/>
    <tripinfo id="38" depart="1162.00" departLane="a8_0" departPos="5.10" departSpeed="0.00" departDelay="0.90" arrival="1456.00" arrivalLane="a204[1][1]_0" arrivalPos="436.51" arrivalSpeed="14.08" duration="294.00" routeLength="2419.72" waitingTime="94.00" waitingCount="4" stopTime="0.00" timeLoss="134.20" rerouteNo="0" devices="vehroute_38 tripinfo_38 fcd_38" vType="DEFAULT_VEHTYPE" speedFactor="1.10" vaporized=""/>
    <tripinfo id="40" depart="1247.00" departLane="a195_0" departPos="5.10" departSpeed="0.00" departDelay="0.24" arrival="1535.00" arrivalLane="b2[1][1][1]b_0" arrivalPos="325.74" arrivalSpeed="14.25" duration="288.00" routeLength="2441.66" waitingTime="84.00" waitingCount="2" stopTime="0.00" timeLoss="114.28" rerouteNo="0" devices="vehroute_40 tripinfo_40 fcd_40" vType="DEFAULT_VEHTYPE" speedFactor="1.03" vaporized=""/>
    <tripinfo id="41" depart="1314.00" departLane="a195_0" departPos="5.10" departSpeed="0.00" departDelay="0.73" arrival="1538.00" arrivalLane="b2[1][1][1]b_1" arrivalPos="325.74" arrivalSpeed="12.37" duration="224.00" routeLength="2441.66" waitingTime="11.00" waitingCount="2" stopTime="0.00" timeLoss="36.84" rerouteNo="0" devices="vehroute_41 tripinfo_41 fcd_41" vType="DEFAULT_VEHTYPE" speedFactor="0.96" vaporized=""/>
    <tripinfo id="39" depart="1231.00" departLane="a161_0" departPos="5.10" departSpeed="0.00" departDelay="0.97" arrival="1584.00" arrivalLane="b21_1" arrivalPos="90.26" arrivalSpeed="11.75" duration="353.00" routeLength="2628.65" waitingTime="107.00" waitingCount="3" stopTime="0.00" timeLoss="139.67" rerouteNo="0" devices="vehroute_39 tripinfo_39 fcd_39" vType="DEFAULT_VEHTYPE" speedFactor="0.90" vaporized=""/>
    <tripinfo id="43" depart="1378.00" departLane="a161_0" departPos="5.10" departSpeed="0.00" departDelay="0.91" arrival="1599.00" arrivalLane="b21_1" arrivalPos="90.26" arrivalSpeed="13.79" duration="221.00" routeLength="2627.12" waitingTime="6.00" waitingCount="2" stopTime="0.00" timeLoss="36.92" rerouteNo="0" devices="vehroute_43 tripinfo_43 fcd_43" vType="DEFAULT_VEHTYPE" speedFactor="1.04" vaporized=""/>
    <tripinfo id="42" depart="1372.00" departLane="a195_0" departPos="5.10" departSpeed="0.00" departDelay="0.73" arrival="1659.00" arrivalLane="b2[1][1][1]b_0" arrivalPos="325.74" arrivalSpeed="14.60" duration="287.00" routeLength="2441.66" waitingTime="91.00" waitingCount="2" stopTime="0.00" timeLoss="122.50" rerouteNo="0" devices="vehroute_42 tripinfo_42 fcd_42" vType="DEFAULT_VEHTYPE" speedFactor="1.09" vaporized=""/>
    <tripinfo id="45" depart="1408.00" departLane="a161_0" departPos="5.10" departSpeed="0.00" departDelay="0.25" arrival="1699.00" arrivalLane="b21_1" arrivalPos="90.26" arrivalSpeed="14.08" duration="291.00" routeLength="2627.12" waitingTime="90.00" waitingCount="1" stopTime="0.00" timeLoss="115.14" rerouteNo="0" devices="vehroute_45 tripinfo_45 fcd_45" vType="DEFAULT_VEHTYPE" speedFactor="1.09" vaporized=""/>
    <tripinfo id="44" depart="1392.00" departLane="a194_0" departPos="5.10" departSpeed="0.00" departDelay="0.74" arrival="1705.00" arrivalLane="b11[0]_0" arrivalPos="90.93" arrivalSpeed="14.40" duration="313.00" routeLength="3257.05" waitingTime="45.00" waitingCount="4" stopTime="0.00" timeLoss="84.17" rerouteNo="0" devices="vehroute_44 tripinfo_44 fcd_44" vType="DEFAULT_VEHTYPE" speedFactor="1.04" vaporized=""/>
    <tripinfo id="46" depart="1430.00" departLane="a161_0" departPos="5.10" departSpeed="0.00" departDelay="0.16" arrival="1824.00" arrivalLane="b21_1" arrivalPos="90.26" arrivalSpeed="13.43" duration="394.00" routeLength="2631.61" waitingTime="164.00" waitingCount="4" stopTime="0.00" timeLoss="201.41" rerouteNo="0" devices="vehroute_46 tripinfo_46 fcd_46" vType="DEFAULT_VEHTYPE" speedFactor="1.00" vaporized=""/>
    <tripinfo id="47" depart="1550.00" departLane="a161_0" departPos="5.10" departSpeed="0.00" departDelay="0.79" arrival="1830.00" arrivalLane="b21_1" arrivalPos="90.26" arrivalSpeed="11.80" duration="280.00" routeLength="2631.61" waitingTime="34.00" waitingCount="3" stopTime="0.00" timeLoss="66.56" rerouteNo="0" devices="vehroute_47 tripinfo_47 fcd_47" vType="DEFAULT_VEHTYPE" speedFactor="0.90" vaporized=""/>
    <tripinfo id="48" depart="1710.00" departLane="a195_0" departPos="5.10" departSpeed="0.00" departDelay="0.41" arrival="1930.00" arrivalLane="a80_0" arrivalPos="125.15" arrivalSpeed="11.07" duration="220.00" routeLength="1819.72" waitingTime="31.00" waitingCount="3" stopTime="0.00" timeLoss="65.96" rerouteNo="0" devices="vehroute_48 tripinfo_48 fcd_48" vType="DEFAULT_VEHTYPE" speedFactor="0.88" vaporized=""/>
    <tripinfo id="49" depart="1722.00" departLane="a78[0]_0" departPos="5.10" departSpeed="0.00" departDelay="0.36" arrival="1939.00" arrivalLane="b53a_0" arrivalPos="257.19" arrivalSpeed="11.36" duration="217.00" routeLength="1975.46" waitingTime="24.00" waitingCount="1" stopTime="0.00" timeLoss="46.46" rerouteNo="0" devices="vehroute_49 tripinfo_49 fcd_49" vType="DEFAULT_VEHTYPE" speedFactor="0.85" vaporized=""/>
    <tripinfo id="50" depart="1726.00" departLane="a78[0]_0" departPos="5.10" departSpeed="0.00" departDelay="0.32" arrival="1942.00" arrivalLane="b53a_0" arrivalPos="257.19" arrivalSpeed="11.06" duration="216.00" routeLength="1975.46" waitingTime="22.00" waitingCount="1" stopTime="0.00" timeLoss="46.10" rerouteNo="0" devices="vehroute_50 tripinfo_50 fcd_50" vType="DEFAULT_VEHTYPE" speedFactor="0.85" vaporized=""/>
    <tripinfo id="51" depart="1745.00" departLane="a161_0" departPos="5.10" departSpeed="0.00" departDelay="0.43" arrival="1945.00" arrivalLane="b21_1" arrivalPos="90.26" arrivalSpeed="15.96" duration="200.00" routeLength="2627.12" waitingTime="9.00" waitingCount="2" stopTime="0.00" timeLoss="36.08" rerouteNo="0" devices="vehroute_51 tripinfo_51 fcd_51" vType="DEFAULT_VEHTYPE" speedFactor="1.17" vaporized=""/>
    <tripinfo id="53" depart="1822.00" departLane="a195_0" departPos="5.10" departSpeed="0.00" departDelay="0.01" arrival="2013.00" arrivalLane="b2[1][1][1]b_0" arrivalPos="325.74" arrivalSpeed="14.58" duration="191.00" routeLength="2441.66" waitingTime="5.00" waitingCount="1" stopTime="0.00" timeLoss="27.94" rerouteNo="0" devices="vehroute_53 tripinfo_53 fcd_53" vType="DEFAULT_VEHTYPE" speedFactor="1.10" vaporized=""/>
    <tripinfo id="52" depart="1805.00" departLane="a8_0" departPos="5.10" departSpeed="0.00" departDelay="0.85" arrival="2051.00" arrivalLane="a204[1][1]_0" arrivalPos="436.51" arrivalSpeed="12.94" duration="246.00" routeLength="2419.72" waitingTime="46.00" waitingCount="2" stopTime="0.00" timeLoss="72.88" rerouteNo="0" devices="vehroute_52 tripinfo_52 fcd_52" vType="DEFAULT_VEHTYPE" speedFactor="1.02" vaporized=""/>
    <tripinfo id="55" depart="1836.00" departLane="a78[0]_0" departPos="5.10" departSpeed="0.00" departDelay="0.99" arrival="2056.00" arrivalLane="b53a_0" arrivalPos="257.19" arrivalSpeed="13.66" duration="220.00" routeLength="1975.46" waitingTime="44.00" waitingCount="3" stopTime="0.00" timeLoss="74.95" rerouteNo="0" devices="vehroute_55 tripinfo_55 fcd_55" vType="DEFAULT_VEHTYPE" speedFactor="1.00" vaporized=""/>
    <tripinfo id="54" depart="1825.00" departLane="a161_0" departPos="5.10" departSpeed="0.00" departDelay="0.38" arrival="2075.00" arrivalLane="b21_1" arrivalPos="90.26" arrivalSpeed="13.50" duration="250.00" routeLength="2631.61" waitingTime="25.00" waitingCount="1" stopTime="0.00" timeLoss="58.78" rerouteNo="0" devices="vehroute_54 tripinfo_54 fcd_54" vType="DEFAULT_VEHTYPE" speedFactor="1.00" vaporized=""/>
    <tripinfo id="57" depart="1944.00" departLane="a203[0]_0" departPos="5.10" departSpeed="0.00" departDelay="0.96" arrival="2190.00" arrivalLane="b23_0" arrivalPos="155.55" arrivalSpeed="15.35" duration="246.00" routeLength="2315.90" waitingTime="63.00" waitingCount="3" stopTime="0.00" timeLoss="98.45" rerouteNo="0" devices="vehroute_57 tripinfo_57 fcd_57" vType="DEFAULT_VEHTYPE" speedFactor="1.14" vaporized=""/>
    <tripinfo id="56" depart="1917.00" departLane="a210_0" departPos="5.10" departSpeed="0.00" departDelay="0.07" arrival="2252.00" arrivalLane="b3[1]_0" arrivalPos="172.58" arrivalSpeed="11.88" duration="335.00" routeLength="2778.17" waitingTime="77.00" waitingCount="3" stopTime="0.00" timeLoss="111.50" rerouteNo="0" devices="vehroute_56 tripinfo_56 fcd_56" vType="DEFAULT_VEHTYPE" speedFactor="0.90" vaporized=""/>
    <tripinfo id="61" depart="2069.00" departLane="a8_0" departPos="5.10" departSpeed="0.00" departDelay="0.49" arrival="2279.00" arrivalLane="a204[1][1]_0" arrivalPos="436.51" arrivalSpeed="15.44" duration="210.00" routeLength="2415.23" waitingTime="25.00" waitingCount="1" stopTime="0.00" timeLoss="53.48" rerouteNo="0" devices="vehroute_61 tripinfo_61 fcd_61" vType="DEFAULT_VEHTYPE" speedFactor="1.12" vaporized=""/>
    <tripinfo id="58" depart="2032.00" departLane="a161_0" departPos="5.10" departSpeed="0.00" departDelay="0.01" arrival="2314.00" arrivalLane="b21_1" arrivalPos="90.26" arrivalSpeed="13.46" duration="282.00" routeLength="2628.65" waitingTime="55.00" waitingCount="3" stopTime="0.00" timeLoss="94.24" rerouteNo="0" devices="vehroute_58 tripinfo_58 fcd_58" vType="DEFAULT_VEHTYPE" speedFactor="1.02" vaporized=""/>
    <tripinfo id="59" depart="2040.00" departLane="a161_0" departPos="5.10" departSpeed="0.00" departDelay="0.33" arrival="2353.00" arrivalLane="b21_1" arrivalPos="90.26" arrivalSpeed="12.23" duration="313.00" routeLength="2627.12" waitingTime="75.00" waitingCount="3" stopTime="0.00" timeLoss="115.02" rerouteNo="0" devices="vehroute_59 tripinfo_59 fcd_59" vType="DEFAULT_VEHTYPE" speedFactor="0.97" vaporized=""/>
    <tripinfo id="63" depart="2140.00" departLane="a195_0" departPos="5.10" departSpeed="0.00" departDelay="0.55" arrival="2388.00" arrivalLane="b2[1][1][1]b_0" arrivalPos="325.74" arrivalSpeed="13.24" duration="248.00" routeLength="2441.66" waitingTime="40.00" waitingCount="1" stopTime="0.00" timeLoss="65.95" rerouteNo="0" devices="vehroute_63 tripinfo_63 fcd_63" vType="DEFAULT_VEHTYPE" speedFactor="0.99" vaporized=""/>
    <tripinfo id="62" depart="2071.00" departLane="a161_0" departPos="5.10" departSpeed="0.00" departDelay="0.41" arrival="2437.00" arrivalLane="b21_1" arrivalPos="90.26" arrivalSpeed="13.78" duration="366.00" routeLength="2624.16" waitingTime="147.00" waitingCount="3" stopTime="0.00" timeLoss="177.84" rerouteNo="0" devices="vehroute_62 tripinfo_62 fcd_62" vType="DEFAULT_VEHTYPE" speedFactor="1.02" vaporized=""/>
    <tripinfo id="60" depart="2063.00" departLane="a161_0" departPos="5.10" departSpeed="0.00" departDelay="0.05" arrival="2439.00" arrivalLane="b21_1" arrivalPos="90.26" arrivalSpeed="15.02" duration="376.00" routeLength="2627.12" waitingTime="161.00" waitingCount="3" stopTime="0.00" timeLoss="198.36" rerouteNo="0" devices="vehroute_60 tripinfo_60 fcd_60" vType="DEFAULT_VEHTYPE" speedFactor="1.08" vaporized=""/>
    <tripinfo id="64" depart="2170.00" departLane="a161_0" departPos="5.10" departSpeed="0.00" departDelay="0.81" arrival="2478.00" arrivalLane="b21_1" arrivalPos="90.26" arrivalSpeed="12.25" duration="308.00" routeLength="2631.61" waitingTime="66.00" waitingCount="3" stopTime="0.00" timeLoss="102.43" rerouteNo="0" devices="vehroute_64 tripinfo_64 fcd_64" vType="DEFAULT_VEHTYPE" speedFactor="0.94" vaporized=""/>
    <tripinfo id="65" depart="2183.00" departLane="a161_0" departPos="5.10" departSpeed="0.00" departDelay="0.06" arrival="2480.00" arrivalLane="b21_1" arrivalPos="90.26" arrivalSpeed="11.60" duration="297.00" routeLength="2624.16" waitingTime="46.00" waitingCount="2" stopTime="0.00" timeLoss="80.12" rerouteNo="0" devices="vehroute_65 tripinfo_65 fcd_65" vType="DEFAULT_VEHTYPE" speedFactor="0.88" vaporized=""/>
    <tripinfo id="66" depart="2191.00" departLane="a161_0" departPos="5.10" departSpeed="0.00" departDelay="0.45" arrival="2482.00" arrivalLane="b21_1" arrivalPos="90.26" arrivalSpeed="12.06" duration="291.00" routeLength="2627.12" waitingTime="44.00" waitingCount="2" stopTime="0.00" timeLoss="79.11" rerouteNo="0" devices="vehroute_66 tripinfo_66 fcd_66" vType="DEFAULT_VEHTYPE" speedFactor="0.91" vaporized=""/>
    <tripinfo id="69" depart="2261.00" departLane="a8_0" departPos="5.10" departSpeed="0.00" departDelay="0.38" arrival="2491.00" arrivalLane="a204[1][1]_0" arrivalPos="436.51" arrivalSpeed="13.62" duration="230.00" routeLength="2419.72" waitingTime="31.00" waitingCount="1" stopTime="0.00" timeLoss="57.21" rerouteNo="0" devices="vehroute_69 tripinfo_69 fcd_69" vType="DEFAULT_VEHTYPE" speedFactor="1.02" vaporized=""/>