<?xml version="1.0" encoding="UTF-8"?>

<!-- generated on 2025-03-21 18:01:00 by Eclipse SUMO sumo Version 1.21.0
<sumoConfiguration xmlns:xsi="http://www.w3.org/2001/XMLSchema-instance" xsi:noNamespaceSchemaLocation="http://sumo.dlr.de/xsd/sumoConfiguration.xsd">

    <input>
        <net-file value="${STATICPATH}/joined_lanes.net.xml"/>
        <route-files value="${SIMULATIONPATH}/generatedRoutes.rou.xml"/>
        <additional-files value="${STATICPATH}/detectors.add.xml,${STATICPATH}/joined_vtypes.add.xml,${STATICPATH}/joined_tls.add.xml"/>
    </input>

    <output>
        <fcd-output value="${SIMULATIONPATH}/fcd.xml"/>
        <queue-output value="${SIMULATIONPATH}/queue.xml"/>
        <summary-output value="${SIMULATIONPATH}/summary.xml"/>
        <tripinfo-output value="${SIMULATIONPATH}/tripinfos.xml"/>
        <vehroute-output value="${SIMULATIONPATH}/vehroute.xml"/>
        <save-state.prefix value="configs\state"/>
    </output>

    <processing>
        <ignore-junction-blocker value="1"/>
        <ignore-route-errors value="true"/>
        <time-to-teleport value="-1"/>
    </processing>

    <report>
        <log value="C:/Users/fabio/Desktop/sumo_log.txt"/>
        <no-step-log value="true"/>
    </report>

    <emissions>
        <phemlight-path value="configs\./PHEMlight/"/>
    </emissions>

    <traci_server>
        <remote-port value="60271"/>
    </traci_server>

</sumoConfiguration>
-->

<tripinfos xmlns:xsi="http://www.w3.org/2001/XMLSchema-instance" xsi:noNamespaceSchemaLocation="http://sumo.dlr.de/xsd/tripinfo_file.xsd">
    <tripinfo id="0" depart="44.00" departLane="a210_0" departPos="5.10" departSpeed="0.00" departDelay="0.41" arrival="397.00" arrivalLane="b17[1]_0" arrivalPos="187.21" arrivalSpeed="13.56" duration="353.00" routeLength="2779.71" waitingTime="118.00" waitingCount="5" stopTime="0.00" timeLoss="161.25" rerouteNo="0" devices="vehroute_0 tripinfo_0 fcd_0" vType="DEFAULT_VEHTYPE" speedFactor="1.06" vaporized=""/>
    <tripinfo id="2" depart="76.00" departLane="a210_0" departPos="5.10" departSpeed="0.00" departDelay="0.60" arrival="400.00" arrivalLane="b17[1]_0" arrivalPos="187.21" arrivalSpeed="12.78" duration="324.00" routeLength="2779.71" waitingTime="88.00" waitingCount="3" stopTime="0.00" timeLoss="122.46" rerouteNo="0" devices="vehroute_2 tripinfo_2 fcd_2" vType="DEFAULT_VEHTYPE" speedFactor="1.01" vaporized=""/>
    <tripinfo id="3" depart="139.00" departLane="a210_0" departPos="5.10" departSpeed="0.00" departDelay="0.67" arrival="402.00" arrivalLane="b17[1]_0" arrivalPos="187.21" arrivalSpeed="14.84" duration="263.00" routeLength="2779.71" waitingTime="23.00" waitingCount="4" stopTime="0.00" timeLoss="74.40" rerouteNo="0" devices="vehroute_3 tripinfo_3 fcd_3" vType="DEFAULT_VEHTYPE" speedFactor="1.08" vaporized=""/>
    <tripinfo id="4" depart="151.00" departLane="a210_0" departPos="5.10" departSpeed="0.00" departDelay="0.98" arrival="411.00" arrivalLane="b3[1]_0" arrivalPos="172.58" arrivalSpeed="13.64" duration="260.00" routeLength="2778.17" waitingTime="35.00" waitingCount="2" stopTime="0.00" timeLoss="64.98" rerouteNo="0" devices="vehroute_4 tripinfo_4 fcd_4" vType="DEFAULT_VEHTYPE" speedFactor="1.03" vaporized=""/>
    <tripinfo id="1" depart="47.00" departLane="a210_0" departPos="5.10" departSpeed="0.00" departDelay="3.37" arrival="412.00" arrivalLane="b3[1]_0" arrivalPos="172.58" arrivalSpeed="12.36" duration="365.00" routeLength="2772.92" waitingTime="115.00" waitingCount="4" stopTime="0.00" timeLoss="151.07" rerouteNo="0" devices="vehroute_1 tripinfo_1 fcd_1" vType="DEFAULT_VEHTYPE" speedFactor="0.94" vaporized=""/>
    <tripinfo id="5" depart="154.00" departLane="a210_0" departPos="5.10" departSpeed="0.00" departDelay="2.98" arrival="537.00" arrivalLane="b17[1]_0" arrivalPos="187.21" arrivalSpeed="10.71" duration="383.00" routeLength="2779.71" waitingTime="101.00" waitingCount="3" stopTime="0.00" timeLoss="137.76" rerouteNo="0" devices="vehroute_5 tripinfo_5 fcd_5" vType="DEFAULT_VEHTYPE" speedFactor="0.83" vaporized=""/>
    <tripinfo id="6" depart="240.00" departLane="a210_0" departPos="5.10" departSpeed="0.00" departDelay="0.05" arrival="539.00" arrivalLane="b17[1]_0" arrivalPos="187.21" arrivalSpeed="14.46" duration="299.00" routeLength="2779.71" waitingTime="41.00" waitingCount="3" stopTime="0.00" timeLoss="103.31" rerouteNo="0" devices="vehroute_6 tripinfo_6 fcd_6" vType="DEFAULT_VEHTYPE" speedFactor="1.05" vaporized=""/>
    <tripinfo id="7" depart="257.00" departLane="a210_0" departPos="5.10" departSpeed="0.00" departDelay="0.48" arrival="540.00" arrivalLane="b17[1]_0" arrivalPos="187.21" arrivalSpeed="12.01" duration="283.00" routeLength="2779.71" waitingTime="16.00" waitingCount="1" stopTime="0.00" timeLoss="53.49" rerouteNo="0" devices="vehroute_7 tripinfo_7 fcd_7" vType="DEFAULT_VEHTYPE" speedFactor="0.89" vaporized=""/>
    <tripinfo id="10" depart="306.00" departLane="a210_0" departPos="5.10" departSpeed="0.00" departDelay="0.75" arrival="560.00" arrivalLane="b3[1]_0" arrivalPos="172.58" arrivalSpeed="14.57" duration="254.00" routeLength="2775.21" waitingTime="37.00" waitingCount="3" stopTime="0.00" timeLoss="70.28" rerouteNo="0" devices="vehroute_10 tripinfo_10 fcd_10" vType="DEFAULT_VEHTYPE" speedFactor="1.09" vaporized=""/>
    <tripinfo id="8" depart="260.00" departLane="a210_0" departPos="5.10" departSpeed="0.00" departDelay="0.50" arrival="562.00" arrivalLane="b3[1]_0" arrivalPos="172.58" arrivalSpeed="12.49" duration="302.00" routeLength="2772.92" waitingTime="60.00" waitingCount="2" stopTime="0.00" timeLoss="88.16" rerouteNo="0" devices="vehroute_8 tripinfo_8 fcd_8" vType="DEFAULT_VEHTYPE" speedFactor="0.94" vaporized=""/>
    <tripinfo id="9" depart="296.00" departLane="a210_0" departPos="5.10" departSpeed="0.00" departDelay="0.18" arrival="567.00" arrivalLane="b3[1]_0" arrivalPos="172.58" arrivalSpeed="11.43" duration="271.00" routeLength="2778.17" waitingTime="4.00" waitingCount="2" stopTime="0.00" timeLoss="36.07" rerouteNo="0" devices="vehroute_9 tripinfo_9 fcd_9" vType="DEFAULT_VEHTYPE" speedFactor="0.86" vaporized=""/>
    <tripinfo id="11" depart="354.00" departLane="a210_0" departPos="5.10" departSpeed="0.00" departDelay="0.90" arrival="656.00" arrivalLane="b17[1]_0" arrivalPos="187.21" arrivalSpeed="13.67" duration="302.00" routeLength="2779.71" waitingTime="66.00" waitingCount="4" stopTime="0.00" timeLoss="104.00" rerouteNo="0" devices="vehroute_11 tripinfo_11 fcd_11" vType="DEFAULT_VEHTYPE" speedFactor="1.03" vaporized=""/>
    <tripinfo id="13" depart="396.00" departLane="a210_0" departPos="5.10" departSpeed="0.00" departDelay="0.95" arrival="724.00" arrivalLane="b3[1]_0" arrivalPos="172.58" arrivalSpeed="14.48" duration="328.00" routeLength="2778.17" waitingTime="117.00" waitingCount="3" stopTime="0.00" timeLoss="148.48" rerouteNo="0" devices="vehroute_13 tripinfo_13 fcd_13" vType="DEFAULT_VEHTYPE" speedFactor="1.12" vaporized=""/>
    <tripinfo id="14" depart="437.00" departLane="a210_0" departPos="5.10" departSpeed="0.00" departDelay="0.01" arrival="724.00" arrivalLane="b3[1]_1" arrivalPos="172.58" arrivalSpeed="12.80" duration="287.00" routeLength="2769.96" waitingTime="55.00" waitingCount="3" stopTime="0.00" timeLoss="85.04" rerouteNo="0" devices="vehroute_14 tripinfo_14 fcd_14" vType="DEFAULT_VEHTYPE" speedFactor="0.99" vaporized=""/>
    <tripinfo id="16" depart="462.00" departLane="a210_0" departPos="5.10" departSpeed="0.00" departDelay="0.86" arrival="763.00" arrivalLane="b3[1]_0" arrivalPos="172.58" arrivalSpeed="11.43" duration="301.00" routeLength="2778.17" waitingTime="46.00" waitingCount="2" stopTime="0.00" timeLoss="71.80" rerouteNo="0" devices="vehroute_16 tripinfo_16 fcd_16" vType="DEFAULT_VEHTYPE" speedFactor="0.88" vaporized=""/>
    <tripinfo id="12" depart="357.00" departLane="a210_0" departPos="5.10" departSpeed="0.00" departDelay="2.78" arrival="766.00" arrivalLane="b17[1]_0" arrivalPos="187.21" arrivalSpeed="13.61" duration="409.00" routeLength="2779.71" waitingTime="165.00" waitingCount="6" stopTime="0.00" timeLoss="213.80" rerouteNo="0" devices="vehroute_12 tripinfo_12 fcd_12" vType="DEFAULT_VEHTYPE" speedFactor="1.05" vaporized=""/>
    <tripinfo id="15" depart="440.00" departLane="a210_0" departPos="5.10" departSpeed="0.00" departDelay="2.60" arrival="773.00" arrivalLane="b17[1]_0" arrivalPos="187.21" arrivalSpeed="12.42" duration="333.00" routeLength="2779.71" waitingTime="81.00" waitingCount="2" stopTime="0.00" timeLoss="114.11" rerouteNo="0" devices="vehroute_15 tripinfo_15 fcd_15" vType="DEFAULT_VEHTYPE" speedFactor="0.93" vaporized=""/>
    <tripinfo id="19" depart="627.00" departLane="a210_0" departPos="5.10" departSpeed="0.00" departDelay="0.21" arrival="883.00" arrivalLane="b17[1]_0" arrivalPos="187.21" arrivalSpeed="14.90" duration="256.00" routeLength="2779.71" waitingTime="43.00" waitingCount="4" stopTime="0.00" timeLoss="80.04" rerouteNo="0" devices="vehroute_19 tripinfo_19 fcd_19" vType="DEFAULT_VEHTYPE" speedFactor="1.16" vaporized=""/>
    <tripinfo id="17" depart="541.00" departLane="a210_0" departPos="5.10" departSpeed="0.00" departDelay="0.82" arrival="908.00" arrivalLane="b3[1]_1" arrivalPos="172.58" arrivalSpeed="12.81" duration="367.00" routeLength="2769.96" waitingTime="114.00" waitingCount="5" stopTime="0.00" timeLoss="153.45" rerouteNo="0" devices="vehroute_17 tripinfo_17 fcd_17" vType="DEFAULT_VEHTYPE" speedFactor="0.94" vaporized=""/>
    <tripinfo id="18" depart="544.00" departLane="a210_0" departPos="5.10" departSpeed="0.00" departDelay="3.39" arrival="909.00" arrivalLane="b3[1]_0" arrivalPos="172.58" arrivalSpeed="12.78" duration="365.00" routeLength="2778.17" waitingTime="115.00" waitingCount="4" stopTime="0.00" timeLoss="149.84" rerouteNo="0" devices="vehroute_18 tripinfo_18 fcd_18" vType="DEFAULT_VEHTYPE" speedFactor="0.94" vaporized=""/>
    <tripinfo id="20" depart="667.00" departLane="a210_0" departPos="5.10" departSpeed="0.00" departDelay="0.30" arrival="910.00" arrivalLane="b3[1]_0" arrivalPos="172.58" arrivalSpeed="13.07" duration="243.00" routeLength="2778.17" waitingTime="27.00" waitingCount="1" stopTime="0.00" timeLoss="45.78" rerouteNo="0" devices="vehroute_20 tripinfo_20 fcd_20" vType="DEFAULT_VEHTYPE" speedFactor="1.02" vaporized=""/>
    <tripinfo id="22" depart="741.00" departLane="a210_0" departPos="5.10" departSpeed="0.00" departDelay="0.53" arrival="1018.00" arrivalLane="b17[1]_0" arrivalPos="187.21" arrivalSpeed="13.21" duration="277.00" routeLength="2779.71" waitingTime="34.00" waitingCount="3" stopTime="0.00" timeLoss="67.65" rerouteNo="0" devices="vehroute_22 tripinfo_22 fcd_22" vType="DEFAULT_VEHTYPE" speedFactor="0.97" vaporized=""/>
    <tripinfo id="21" depart="711.00" departLane="a210_0" departPos="5.10" departSpeed="0.00" departDelay="0.11" arrival="1048.00" arrivalLane="b3[1]_0" arrivalPos="172.58" arrivalSpeed="12.89" duration="337.00" routeLength="2778.17" waitingTime="106.00" waitingCount="3" stopTime="0.00" timeLoss="137.83" rerouteNo="0" devices="vehroute_21 tripinfo_21 fcd_21" vType="DEFAULT_VEHTYPE" speedFactor="1.01" vaporized=""/>
    <tripinfo id="23" depart="775.00" departLane="a210_0" departPos="5.10" departSpeed="0.00" departDelay="0.27" arrival="1050.00" arrivalLane="b3[1]_0" arrivalPos="172.58" arrivalSpeed="12.22" duration="275.00" routeLength="2769.96" waitingTime="19.00" waitingCount="2" stopTime="0.00" timeLoss="49.29" rerouteNo="0" devices="vehroute_23 tripinfo_23 fcd_23" vType="DEFAULT_VEHTYPE" speedFactor="0.89" vaporized=""/>
    <tripinfo id="24" depart="809.00" departLane="a210_0" departPos="5.10" departSpeed="0.00" departDelay="0.38" arrival="1152.00" arrivalLane="b17[1]_0" arrivalPos="187.21" arrivalSpeed="11.42" duration="343.00" routeLength="2779.71" waitingTime="62.00" waitingCount="3" stopTime="0.00" timeLoss="95.91" rerouteNo="0" devices="vehroute_24 tripinfo_24 fcd_24" vType="DEFAULT_VEHTYPE" speedFactor="0.83" vaporized=""/>
    <tripinfo id="25" depart="867.00" departLane="a210_0" departPos="5.10" departSpeed="0.00" departDelay="0.51" arrival="1154.00" arrivalLane="b17[1]_0" arrivalPos="187.21" arrivalSpeed="11.29" duration="287.00" routeLength="2779.71" waitingTime="9.00" waitingCount="1" stopTime="0.00" timeLoss="53.39" rerouteNo="0" devices="vehroute_25 tripinfo_25 fcd_25" vType="DEFAULT_VEHTYPE" speedFactor="0.87" vaporized=""/>
    <tripinfo id="28" depart="955.00" departLane="a210_0" departPos="5.10" departSpeed="0.00" departDelay="0.83" arrival="1196.00" arrivalLane="b3[1]_0" arrivalPos="172.58" arrivalSpeed="14.61" duration="241.00" routeLength="2778.17" waitingTime="41.00" waitingCount="2" stopTime="0.00" timeLoss="62.98" rerouteNo="0" devices="vehroute_28 tripinfo_28 fcd_28" vType="DEFAULT_VEHTYPE" speedFactor="1.13" vaporized=""/>
    <tripinfo id="27" depart="917.00" departLane="a210_0" departPos="5.10" departSpeed="0.00" departDelay="0.19" arrival="1197.00" arrivalLane="b3[1]_1" arrivalPos="172.58" arrivalSpeed="12.24" duration="280.00" routeLength="2769.96" waitingTime="37.00" waitingCount="3" stopTime="0.00" timeLoss="68.92" rerouteNo="0" devices="vehroute_27 tripinfo_27 fcd_27" vType="DEFAULT_VEHTYPE" speedFactor="0.95" vaporized=""/>
    <tripinfo id="26" depart="870.00" departLane="a210_0" departPos="5.10" departSpeed="0.00" departDelay="1.67" arrival="1200.00" arrivalLane="b3[1]_0" arrivalPos="172.58" arrivalSpeed="11.97" duration="330.00" routeLength="2778.17" waitingTime="81.00" waitingCount="3" stopTime="0.00" timeLoss="110.90" rerouteNo="0" devices="vehroute_26 tripinfo_26 fcd_26" vType="DEFAULT_VEHTYPE" speedFactor="0.92" vaporized=""/>
    <tripinfo id="30" depart="1064.00" departLane="a210_0" departPos="5.10" departSpeed="0.00" departDelay="0.40" arrival="1359.00" arrivalLane="b3[1]_0" arrivalPos="172.58" arrivalSpeed="16.13" duration="295.00" routeLength="2778.17" waitingTime="91.00" waitingCount="3" stopTime="0.00" timeLoss="123.97" rerouteNo="0" devices="vehroute_30 tripinfo_30 fcd_30" vType="DEFAULT_VEHTYPE" speedFactor="1.18" vaporized=""/>
    <tripinfo id="29" depart="1055.00" departLane="a210_0" departPos="5.10" departSpeed="0.00" departDelay="0.84" arrival="1389.00" arrivalLane="b17[1]_0" arrivalPos="187.21" arrivalSpeed="12.61" duration="334.00" routeLength="2779.71" waitingTime="75.00" waitingCount="4" stopTime="0.00" timeLoss="115.90" rerouteNo="0" devices="vehroute_29 tripinfo_29 fcd_29" vType="DEFAULT_VEHTYPE" speedFactor="0.93" vaporized=""/>
    <tripinfo id="31" depart="1068.00" departLane="a210_0" departPos="5.10" departSpeed="0.00" departDelay="0.47" arrival="1391.00" arrivalLane="b17[1]_0" arrivalPos="187.21" arrivalSpeed="15.03" duration="323.00" routeLength="2779.71" waitingTime="70.00" waitingCount="4" stopTime="0.00" timeLoss="146.11" rerouteNo="0" devices="vehroute_31 tripinfo_31 fcd_31" vType="DEFAULT_VEHTYPE" speedFactor="1.15" vaporized=""/>
    <tripinfo id="33" depart="1169.00" departLane="a210_0" departPos="5.10" departSpeed="0.00" departDelay="0.17" arrival="1392.00" arrivalLane="b17[1]_0" arrivalPos="187.21" arrivalSpeed="14.40" duration="223.00" routeLength="2779.71" waitingTime="1.00" waitingCount="1" stopTime="0.00" timeLoss="49.80" rerouteNo="0" devices="vehroute_33 tripinfo_33 fcd_33" vType="DEFAULT_VEHTYPE" speedFactor="1.17" vaporized=""/>
    <tripinfo id="32" depart="1136.00" departLane="a210_0" departPos="5.10" departSpeed="0.00" departDelay="0.54" arrival="1395.00" arrivalLane="b3[1]_0" arrivalPos="172.58" arrivalSpeed="13.04" duration="259.00" routeLength="2778.17" waitingTime="34.00" waitingCount="1" stopTime="0.00" timeLoss="58.99" rerouteNo="0" devices="vehroute_32 tripinfo_32 fcd_32" vType="DEFAULT_VEHTYPE" speedFactor="1.01" vaporized=""/>
    <tripinfo id="35" depart="1259.00" departLane="a210_0" departPos="5.10" departSpeed="0.00" departDelay="0.07" arrival="1506.00" arrivalLane="b17[1]_0" arrivalPos="187.21" arrivalSpeed="13.23" duration="247.00" routeLength="2779.71" waitingTime="14.00" waitingCount="3" stopTime="0.00" timeLoss="46.80" rerouteNo="0" devices="vehroute_35 tripinfo_35 fcd_35" vType="DEFAULT_VEHTYPE" speedFactor="1.02" vaporized=""/>
    <tripinfo id="34" depart="1218.00" departLane="a210_0" departPos="5.10" departSpeed="0.00" departDelay="0.24" arrival="1548.00" arrivalLane="b3[1]_0" arrivalPos="172.58" arrivalSpeed="13.24" duration="330.00" routeLength="2778.17" waitingTime="95.00" waitingCount="4" stopTime="0.00" timeLoss="127.84" rerouteNo="0" devices="vehroute_34 tripinfo_34 fcd_34" vType="DEFAULT_VEHTYPE" speedFactor="0.99" vaporized=""/>
    <tripinfo id="36" depart="1272.00" departLane="a210_0" departPos="5.10" departSpeed="0.00" departDelay="0.29" arrival="1631.00" arrivalLane="b17[1]_0" arrivalPos="187.21" arrivalSpeed="13.00" duration="359.00" routeLength="2779.71" waitingTime="113.00" waitingCount="4" stopTime="0.00" timeLoss="150.60" rerouteNo="0" devices="vehroute_36 tripinfo_36 fcd_36" vType="DEFAULT_VEHTYPE" speedFactor="0.97" vaporized=""/>
    <tripinfo id="37" depart="1340.00" departLane="a210_0" departPos="5.10" departSpeed="0.00" departDelay="0.20" arrival="1632.00" arrivalLane="b17[1]_0" arrivalPos="187.21" arrivalSpeed="15.17" duration="292.00" routeLength="2779.71" waitingTime="57.00" waitingCount="4" stopTime="0.00" timeLoss="119.05" rerouteNo="0" devices="vehroute_37 tripinfo_37 fcd_37" vType="DEFAULT_VEHTYPE" speedFactor="1.18" vaporized=""/>
    <tripinfo id="38" depart="1354.00" departLane="a210_0" departPos="5.10" departSpeed="0.00" departDelay="0.80" arrival="1634.00" arrivalLane="b17[1]_0" arrivalPos="187.21" arrivalSpeed="15.21" duration="280.00" routeLength="2779.71" waitingTime="45.00" waitingCount="2" stopTime="0.00" timeLoss="95.39" rerouteNo="0" devices="vehroute_38 tripinfo_38 fcd_38" vType="DEFAULT_VEHTYPE" speedFactor="1.10" vaporized=""/>
    <tripinfo id="40" depart="1421.00" departLane="a210_0" departPos="5.10" departSpeed="0.00" departDelay="0.89" arrival="1709.00" arrivalLane="b3[1]_0" arrivalPos="172.58" arrivalSpeed="13.76" duration="288.00" routeLength="2775.21" waitingTime="61.00" waitingCount="3" stopTime="0.00" timeLoss="92.66" rerouteNo="0" devices="vehroute_40 tripinfo_40 fcd_40" vType="DEFAULT_VEHTYPE" speedFactor="1.03" vaporized=""/>
    <tripinfo id="39" depart="1375.00" departLane="a210_0" departPos="5.10" departSpeed="0.00" departDelay="0.02" arrival="1736.00" arrivalLane="b3[1]_0" arrivalPos="172.58" arrivalSpeed="12.17" duration="361.00" routeLength="2778.17" waitingTime="109.00" waitingCount="3" stopTime="0.00" timeLoss="137.67" rerouteNo="0" devices="vehroute_39 tripinfo_39 fcd_39" vType="DEFAULT_VEHTYPE" speedFactor="0.90" vaporized=""/>
    <tripinfo id="41" depart="1556.00" departLane="a210_0" departPos="5.10" departSpeed="0.00" departDelay="0.52" arrival="1879.00" arrivalLane="b17[1]_0" arrivalPos="187.21" arrivalSpeed="13.26" duration="323.00" routeLength="2779.71" waitingTime="76.00" waitingCount="3" stopTime="0.00" timeLoss="109.72" rerouteNo="0" devices="vehroute_41 tripinfo_41 fcd_41" vType="DEFAULT_VEHTYPE" speedFactor="0.96" vaporized=""/>
    <tripinfo id="42" depart="1576.00" departLane="a210_0" departPos="5.10" departSpeed="0.00" departDelay="0.63" arrival="1880.00" arrivalLane="b17[1]_0" arrivalPos="187.21" arrivalSpeed="15.03" duration="304.00" routeLength="2779.71" waitingTime="71.00" waitingCount="3" stopTime="0.00" timeLoss="117.83" rerouteNo="0" devices="vehroute_42 tripinfo_42 fcd_42" vType="DEFAULT_VEHTYPE" speedFactor="1.09" vaporized=""/>
    <tripinfo id="45" depart="1655.00" departLane="a210_0" departPos="5.10" departSpeed="0.00" departDelay="0.99" arrival="1882.00" arrivalLane="b17[1]_0" arrivalPos="187.21" arrivalSpeed="14.33" duration="227.00" routeLength="2779.71" waitingTime="1.00" waitingCount="1" stopTime="0.00" timeLoss="39.55" rerouteNo="0" devices="vehroute_45 tripinfo_45 fcd_45" vType="DEFAULT_VEHTYPE" speedFactor="1.09" vaporized=""/>
    <tripinfo id="43" depart="1582.00" departLane="a210_0" departPos="5.10" departSpeed="0.00" departDelay="0.14" arrival="1894.00" arrivalLane="b3[1]_1" arrivalPos="172.58" arrivalSpeed="13.67" duration="312.00" routeLength="2772.92" waitingTime="88.00" waitingCount="3" stopTime="0.00" timeLoss="118.86" rerouteNo="0" devices="vehroute_43 tripinfo_43 fcd_43" vType="DEFAULT_VEHTYPE" speedFactor="1.04" vaporized=""/>
    <tripinfo id="44" depart="1636.00" departLane="a210_0" departPos="5.10" departSpeed="0.00" departDelay="0.24" arrival="1895.00" arrivalLane="b3[1]_0" arrivalPos="172.58" arrivalSpeed="14.00" duration="259.00" routeLength="2778.17" waitingTime="37.00" waitingCount="3" stopTime="0.00" timeLoss="65.91" rerouteNo="0" devices="vehroute_44 tripinfo_44 fcd_44" vType="DEFAULT_VEHTYPE" speedFactor="1.04" vaporized=""/>
    <tripinfo id="46" depart="1662.00" departLane="a210_0" departPos="5.10" departSpeed="0.00" departDelay="0.68" arrival="1999.00" arrivalLane="b17[1]_0" arrivalPos="187.21" arrivalSpeed="13.18" duration="337.00" routeLength="2779.71" waitingTime="98.00" waitingCount="3" stopTime="0.00" timeLoss="133.93" rerouteNo="0" devices="vehroute_46 tripinfo_46 fcd_46" vType="DEFAULT_VEHTYPE" speedFactor="1.00" vaporized=""/>
    <tripinfo id="47" depart="1714.00" departLane="a210_0" departPos="5.10" departSpeed="0.00" departDelay="0.33" arrival="2097.00" arrivalLane="b3[1]_0" arrivalPos="172.58" arrivalSpeed="11.54" duration="383.00" routeLength="2778.17" waitingTime="114.00" waitingCount="6" stopTime="0.00" timeLoss="159.70" rerouteNo="0" devices="vehroute_47 tripinfo_47 fcd_47" vType="DEFAULT_VEHTYPE" speedFactor="0.90" vaporized=""/>
    <tripinfo id="49" depart="1760.00" departLane="a210_0" departPos="5.10" departSpeed="0.00" departDelay="2.33" arrival="2107.00" arrivalLane="b3[1]_0" arrivalPos="172.58" arrivalSpeed="10.85" duration="347.00" routeLength="2775.21" waitingTime="69.00" waitingCount="5" stopTime="0.00" timeLoss="111.02" rerouteNo="0" devices="vehroute_49 tripinfo_49 fcd_49" vType="DEFAULT_VEHTYPE" speedFactor="0.85" vaporized=""/>
    <tripinfo id="48" depart="1757.00" departLane="a210_0" departPos="5.10" departSpeed="0.00" departDelay="0.73" arrival="2130.00" arrivalLane="b17[1]_0" arrivalPos="187.21" arrivalSpeed="11.48" duration="373.00" routeLength="2779.71" waitingTime="99.00" waitingCount="3" stopTime="0.00" timeLoss="140.64" rerouteNo="0" devices="vehroute_48 tripinfo_48 fcd_48" vType="DEFAULT_VEHTYPE" speedFactor="0.88" vaporized=""/>
    <tripinfo id="52" depart="1910.00" departLane="a210_0" departPos="5.10" departSpeed="0.00" departDelay="0.91" arrival="2244.00" arrivalLane="b17[1]_0" arrivalPos="187.21" arrivalSpeed="13.47" duration="334.00" routeLength="2779.71" waitingTime="94.00" waitingCount="5" stopTime="0.00" timeLoss="134.39" rerouteNo="0" devices="vehroute_52 tripinfo_52 fcd_52" vType="DEFAULT_VEHTYPE" speedFactor="1.02" vaporized=""/>
    <tripinfo id="54" depart="1973.00" departLane="a210_0" departPos="5.10" departSpeed="0.00" departDelay="0.35" arrival="2246.00" arrivalLane="b17[1]_0" arrivalPos="187.21" arrivalSpeed="13.01" duration="273.00" routeLength="2779.71" waitingTime="34.00" waitingCount="3" stopTime="0.00" timeLoss="70.13" rerouteNo="0" devices="vehroute_54 tripinfo_54 fcd_54" vType="DEFAULT_VEHTYPE" speedFactor="1.00" vaporized=""/>
    <tripinfo id="51" depart="1867.00" departLane="a210_0" departPos="5.10" departSpeed="0.00" departDelay="0.73" arrival="2256.00" arrivalLane="b3[1]_0" arrivalPos="172.58" arrivalSpeed="15.66" duration="389.00" routeLength="2778.17" waitingTime="166.00" waitingCount="5" stopTime="0.00" timeLoss="216.76" rerouteNo="0" devices="vehroute_51 tripinfo_51 fcd_51" vType="DEFAULT_VEHTYPE" speedFactor="1.17" vaporized=""/>
    <tripinfo id="53" depart="1928.00" departLane="a210_0" departPos="5.10" departSpeed="0.00" departDelay="0.88" arrival="2256.00" arrivalLane="b3[1]_1" arrivalPos="172.58" arrivalSpeed="15.12" duration="328.00" routeLength="2772.92" waitingTime="101.00" waitingCount="4" stopTime="0.00" timeLoss="144.68" rerouteNo="0" devices="vehroute_53 tripinfo_53 fcd_53" vType="DEFAULT_VEHTYPE" speedFactor="1.10" vaporized=""/>
    <tripinfo id="50" depart="1844.00" departLane="a210_0" departPos="5.10" departSpeed="0.00" departDelay="0.00" arrival="2262.00" arrivalLane="b3[1]_0" arrivalPos="172.58" arrivalSpeed="11.53" duration="418.00" routeLength="2775.21" waitingTime="140.00" waitingCount="4" stopTime="0.00" timeLoss="183.14" rerouteNo="0" devices="vehroute_50 tripinfo_50 fcd_50" vType="DEFAULT_VEHTYPE" speedFactor="0.85" vaporized=""/>
    <tripinfo id="55" depart="2097.00" departLane="a210_0" departPos="5.10" departSpeed="0.00" departDelay="0.28" arrival="2383.00" arrivalLane="b3[1]_0" arrivalPos="172.58" arrivalSpeed="13.14" duration="286.00" routeLength="2778.17" waitingTime="48.00" waitingCount="4" stopTime="0.00" timeLoss="84.24" rerouteNo="0" devices="vehroute_55 tripinfo_55 fcd_55" vType="DEFAULT_VEHTYPE" speedFactor="1.00" vaporized=""/>
    <tripinfo id="57" depart="2207.00" departLane="a210_0" departPos="5.10" departSpeed="0.00" departDelay="0.42" arrival="2483.00" arrivalLane="b17[1]_0" arrivalPos="187.21" arrivalSpeed="14.86" duration="276.00" routeLength="2779.71" waitingTime="57.00" waitingCount="4" stopTime="0.00" timeLoss="98.15" rerouteNo="0" devices="vehroute_57 tripinfo_57 fcd_57" vType="DEFAULT_VEHTYPE" speedFactor="1.14" vaporized=""/>
    <tripinfo id="58" depart="2211.00" departLane="a210_0" departPos="5.10" departSpeed="0.00" departDelay="0.84" arrival="2489.00" arrivalLane="b17[1]_0" arrivalPos="187.21" arrivalSpeed="13.60" duration="278.00" routeLength="2779.71" waitingTime="38.00" waitingCount="3" stopTime="0.00" timeLoss="78.44" rerouteNo="0" devices="vehroute_58 tripinfo_58 fcd_58" vType="DEFAULT_VEHTYPE" speedFactor="1.02" vaporized=""/>
    <tripinfo id="59" depart="2215.00" departLane="a210_0" departPos="5.10" departSpeed="0.00" departDelay="0.95" arrival="2493.00" arrivalLane="b17[1]_0" arrivalPos="187.21" arrivalSpeed="12.20" duration="278.00" routeLength="2779.71" waitingTime="28.00" waitingCount="3" stopTime="0.00" timeLoss="68.28" rerouteNo="0" devices="vehroute_59 tripinfo_59 fcd_59" vType="DEFAULT_VEHTYPE" speedFactor="0.97" vaporized=""/>
    <tripinfo id="60" depart="2249.00" departLane="a210_0" departPos="5.10" departSpeed="0.00" departDelay="0.21" arrival="2495.00" arrivalLane="b17[1]_0" arrivalPos="187.21" arrivalSpeed="14.00" duration="246.00" routeLength="2779.71" waitingTime="12.00" waitingCount="2" stopTime="0.00" timeLoss="57.10" rerouteNo="0" devices="vehroute_60 tripinfo_60 fcd_60" vType="DEFAULT_VEHTYPE" speedFactor="1.08" vaporized=""/>
    <tripinfo id="62" depart="2296.00" departLane="a210_0" departPos="5.10" departSpeed="0.00" departDelay="2.07" arrival="2527.00" arrivalLane="b3[1]_0" arrivalPos="172.58" arrivalSpeed="14.00" duration="231.00" routeLength="2772.92" waitingTime="11.00" waitingCount="1" stopTime="0.00" timeLoss="33.31" rerouteNo="0" devices="vehroute_62 tripinfo_62 fcd_62" vType="DEFAULT_VEHTYPE" speedFactor="1.02" vaporized=""/>
    <tripinfo id="56" depart="2167.00" departLane="a210_0" departPos="5.10" departSpeed="0.00" departDelay="0.23" arrival="2530.00" arrivalLane="b3[1]_0" arrivalPos="172.58" arrivalSpeed="11.85" duration="363.00" routeLength="2778.17" waitingTime="103.00" waitingCount="3" stopTime="0.00" timeLoss="138.81" rerouteNo="0" devices="vehroute_56 tripinfo_56 fcd_56" vType="DEFAULT_VEHTYPE" speedFactor="0.90" vaporized=""/>
    <tripinfo id="61" depart="2293.00" departLane="a210_0" departPos="5.10" departSpeed="0.00" departDelay="0.99" arrival="2607.00" arrivalLane="b17[1]_0" arrivalPos="187.21" arrivalSpeed="14.34" duration="314.00" routeLength="2779.71" waitingTime="88.00" waitingCount="5" stopTime="0.00" timeLoss="132.41" rerouteNo="0" devices="vehroute_61 tripinfo_61 fcd_61" vType="DEFAULT_VEHTYPE" speedFactor="1.12" vaporized=""/>
    <tripinfo id="66" depart="2374.00" departLane="a210_0" departPos="5.10" departSpeed="0.00" departDelay="0.33" arrival="2622.00" arrivalLane="b17[1]_0" arrivalPos="187.21" arrivalSpeed="11.58" duration="248.00" routeLength="2779.71" waitingTime="0.00" waitingCount="0" stopTime="0.00" timeLoss="22.93" rerouteNo="0" devices="vehroute_66 tripinfo_66 fcd_66" vType="DEFAULT_VEHTYPE" speedFactor="0.91" vaporized=""/>
    <tripinfo id="68" depart="2381.00" departLane="a210_0" departPos="5.10" departSpeed="0.00" departDelay="0.07" arrival="2624.00" arrivalLane="b17[1]_0" arrivalPos="187.21" arrivalSpeed="13.42" duration="243.00" routeLength="2779.71" waitingTime="0.00" waitingCount="0" stopTime="0.00" timeLoss="47.19" rerouteNo="0" devices="vehroute_68 tripinfo_68 fcd_68" vType="DEFAULT_VEHTYPE" speedFactor="1.04" vaporized=""/>
    <tripinfo id="63" depart="2319.00" departLane="a210_0" departPos="5.10" departSpeed="0.00" departDelay="0.94" arrival="2670.00" arrivalLane="b3[1]_0" arrivalPos="172.58" arrivalSpeed="13.63" duration="351.00" routeLength="2778.17" waitingTime="119.00" waitingCount="3" stopTime="0.00" timeLoss="147.12" rerouteNo="0" devices="vehroute_63 tripinfo_63 fcd_63" vType="DEFAULT_VEHTYPE" speedFactor="0.99" vaporized=""/>
    <tripinfo id="64" depart="2325.00" departLane="a210_0" departPos="5.10" departSpeed="0.00" departDelay="0.08" arrival="2670.00" arrivalLane="b3[1]_1" arrivalPos="172.58" arrivalSpeed="12.03" duration="345.00" routeLength="2769.96" waitingTime="99.00" waitingCount="3" stopTime="0.00" timeLoss="131.38" rerouteNo="0" devices="vehroute_64 tripinfo_64 fcd_64" vType="DEFAULT_VEHTYPE" speedFactor="0.94" vaporized=""/>
    <tripinfo id="67" depart="2378.00" departLane="a210_0" departPos="5.10" departSpeed="0.00" departDelay="0.91" arrival="2673.00" arrivalLane="b3[1]_0" arrivalPos="172.58" arrivalSpeed="12.56" duration="295.00" routeLength="2778.17" waitingTime="51.00" waitingCount="2" stopTime="0.00" timeLoss="75.11" rerouteNo="0" devices="vehroute_67 tripinfo_67 fcd_67" vType="DEFAULT_VEHTYPE" speedFactor="0.91" vaporized=""/>