<?xml version="1.0" encoding="UTF-8"?>

<!-- generated on 2025-03-21 17:15:31 by Eclipse SUMO sumo Version 1.21.0
<sumoConfiguration xmlns:xsi="http://www.w3.org/2001/XMLSchema-instance" xsi:noNamespaceSchemaLocation="http://sumo.dlr.de/xsd/sumoConfiguration.xsd">

    <input>
        <net-file value="${STATICPATH}/joined_lanes.net.xml"/>
        <route-files value="${SIMULATIONPATH}/generatedRoutes.rou.xml"/>
        <additional-files value="${STATICPATH}/detectors.add.xml,${STATICPATH}/joined_vtypes.add.xml,${STATICPATH}/joined_tls.add.xml"/>
    </input>

    <output>
        <fcd-output value="${SIMULATIONPATH}/fcd.xml"/>
        <queue-output value="${SIMULATIONPATH}/queue.xml"/>
        <summary-output value="${SIMULATIONPATH}/summary.xml"/>
        <tripinfo-output value="${SIMULATIONPATH}/tripinfos.xml"/>
        <vehroute-output value="${SIMULATIONPATH}/vehroute.xml"/>
        <save-state.prefix value="configs\state"/>
    </output>

    <processing>
        <ignore-junction-blocker value="1"/>
        <ignore-route-errors value="true"/>
        <time-to-teleport value="-1"/>
    </processing>

    <report>
        <log value="C:/Users/fabio/Desktop/sumo_log.txt"/>
        <no-step-log value="true"/>
    </report>

    <emissions>
        <phemlight-path value="configs\./PHEMlight/"/>
    </emissions>

    <traci_server>
        <remote-port value="60008"/>
    </traci_server>

</sumoConfiguration>
-->

<tripinfos xmlns:xsi="http://www.w3.org/2001/XMLSchema-instance" xsi:noNamespaceSchemaLocation="http://sumo.dlr.de/xsd/tripinfo_file.xsd">
    <tripinfo id="0" depart="2.00" departLane="a40_0" departPos="5.10" departSpeed="0.00" departDelay="0.80" arrival="348.00" arrivalLane="b3[1]b_0" arrivalPos="239.77" arrivalSpeed="13.73" duration="346.00" routeLength="3006.76" waitingTime="77.00" waitingCount="7" stopTime="0.00" timeLoss="138.25" rerouteNo="0" devices="vehroute_0 tripinfo_0 fcd_0" vType="DEFAULT_VEHTYPE" speedFactor="1.06" vaporized=""/>
    <tripinfo id="2" depart="83.00" departLane="a1b_0" departPos="5.10" departSpeed="0.00" departDelay="0.58" arrival="365.00" arrivalLane="b2[1][1][1]b_0" arrivalPos="325.74" arrivalSpeed="13.43" duration="282.00" routeLength="2433.28" waitingTime="71.00" waitingCount="2" stopTime="0.00" timeLoss="106.03" rerouteNo="0" devices="vehroute_2 tripinfo_2 fcd_2" vType="DEFAULT_VEHTYPE" speedFactor="1.01" vaporized=""/>
    <tripinfo id="1" depart="64.00" departLane="a1b_0" departPos="5.10" departSpeed="0.00" departDelay="0.32" arrival="370.00" arrivalLane="b2[1][1][1]b_0" arrivalPos="325.74" arrivalSpeed="12.78" duration="306.00" routeLength="2437.77" waitingTime="86.00" waitingCount="3" stopTime="0.00" timeLoss="116.52" rerouteNo="0" devices="vehroute_1 tripinfo_1 fcd_1" vType="DEFAULT_VEHTYPE" speedFactor="0.94" vaporized=""/>
    <tripinfo id="3" depart="154.00" departLane="a1b_0" departPos="5.10" departSpeed="0.00" departDelay="0.52" arrival="378.00" arrivalLane="b2[1][1][1]b_0" arrivalPos="325.74" arrivalSpeed="14.72" duration="224.00" routeLength="2437.77" waitingTime="35.00" waitingCount="2" stopTime="0.00" timeLoss="59.66" rerouteNo="0" devices="vehroute_3 tripinfo_3 fcd_3" vType="DEFAULT_VEHTYPE" speedFactor="1.08" vaporized=""/>
    <tripinfo id="4" depart="233.00" departLane="a1b_0" departPos="5.10" departSpeed="0.00" departDelay="0.38" arrival="486.00" arrivalLane="b2[1][1][1]b_0" arrivalPos="325.74" arrivalSpeed="14.16" duration="253.00" routeLength="2433.28" waitingTime="53.00" waitingCount="2" stopTime="0.00" timeLoss="80.80" rerouteNo="0" devices="vehroute_4 tripinfo_4 fcd_4" vType="DEFAULT_VEHTYPE" speedFactor="1.03" vaporized=""/>
    <tripinfo id="6" depart="288.00" departLane="a1b_0" departPos="5.10" departSpeed="0.00" departDelay="0.12" arrival="621.00" arrivalLane="b2[1][1][1]b_0" arrivalPos="325.74" arrivalSpeed="14.39" duration="333.00" routeLength="2437.77" waitingTime="123.00" waitingCount="4" stopTime="0.00" timeLoss="162.88" rerouteNo="0" devices="vehroute_6 tripinfo_6 fcd_6" vType="DEFAULT_VEHTYPE" speedFactor="1.05" vaporized=""/>
    <tripinfo id="5" depart="269.00" departLane="a40_0" departPos="5.10" departSpeed="0.00" departDelay="0.33" arrival="682.00" arrivalLane="b3[1]b_0" arrivalPos="239.77" arrivalSpeed="11.24" duration="413.00" routeLength="3006.76" waitingTime="94.00" waitingCount="5" stopTime="0.00" timeLoss="144.96" rerouteNo="0" devices="vehroute_5 tripinfo_5 fcd_5" vType="DEFAULT_VEHTYPE" speedFactor="0.83" vaporized=""/>
    <tripinfo id="10" depart="502.00" departLane="a1b_0" departPos="5.10" departSpeed="0.00" departDelay="0.89" arrival="744.00" arrivalLane="b2[1][1][1]b_0" arrivalPos="325.74" arrivalSpeed="14.07" duration="242.00" routeLength="2433.28" waitingTime="39.00" waitingCount="2" stopTime="0.00" timeLoss="79.75" rerouteNo="0" devices="vehroute_10 tripinfo_10 fcd_10" vType="DEFAULT_VEHTYPE" speedFactor="1.09" vaporized=""/>
    <tripinfo id="11" depart="509.00" departLane="a1b_0" departPos="5.10" departSpeed="0.00" departDelay="0.40" arrival="746.00" arrivalLane="b2[1][1][1]b_1" arrivalPos="325.74" arrivalSpeed="13.64" duration="237.00" routeLength="2433.28" waitingTime="30.00" waitingCount="2" stopTime="0.00" timeLoss="64.05" rerouteNo="0" devices="vehroute_11 tripinfo_11 fcd_11" vType="DEFAULT_VEHTYPE" speedFactor="1.03" vaporized=""/>
    <tripinfo id="8" depart="442.00" departLane="a1b_0" departPos="5.10" departSpeed="0.00" departDelay="2.67" arrival="749.00" arrivalLane="b2[1][1][1]b_0" arrivalPos="325.74" arrivalSpeed="12.44" duration="307.00" routeLength="2434.81" waitingTime="76.00" waitingCount="5" stopTime="0.00" timeLoss="117.27" rerouteNo="0" devices="vehroute_8 tripinfo_8 fcd_8" vType="DEFAULT_VEHTYPE" speedFactor="0.94" vaporized=""/>
    <tripinfo id="7" depart="439.00" departLane="a1b_0" departPos="5.10" departSpeed="0.00" departDelay="0.66" arrival="753.00" arrivalLane="b2[1][1][1]b_0" arrivalPos="325.74" arrivalSpeed="11.95" duration="314.00" routeLength="2430.32" waitingTime="70.00" waitingCount="5" stopTime="0.00" timeLoss="113.55" rerouteNo="0" devices="vehroute_7 tripinfo_7 fcd_7" vType="DEFAULT_VEHTYPE" speedFactor="0.89" vaporized=""/>
    <tripinfo id="9" depart="482.00" departLane="a1b_0" departPos="5.10" departSpeed="0.00" departDelay="0.31" arrival="754.00" arrivalLane="b2[1][1][1]b_1" arrivalPos="325.74" arrivalSpeed="11.03" duration="272.00" routeLength="2433.28" waitingTime="31.00" waitingCount="1" stopTime="0.00" timeLoss="63.86" rerouteNo="0" devices="vehroute_9 tripinfo_9 fcd_9" vType="DEFAULT_VEHTYPE" speedFactor="0.86" vaporized=""/>
    <tripinfo id="13" depart="583.00" departLane="a1b_0" departPos="5.10" departSpeed="0.00" departDelay="0.65" arrival="869.00" arrivalLane="b2[1][1][1]b_0" arrivalPos="325.74" arrivalSpeed="14.69" duration="286.00" routeLength="2430.32" waitingTime="84.00" waitingCount="4" stopTime="0.00" timeLoss="128.01" rerouteNo="0" devices="vehroute_13 tripinfo_13 fcd_13" vType="DEFAULT_VEHTYPE" speedFactor="1.12" vaporized=""/>
    <tripinfo id="12" depart="554.00" departLane="a1b_0" departPos="5.10" departSpeed="0.00" departDelay="0.35" arrival="871.00" arrivalLane="b2[1][1][1]b_0" arrivalPos="325.74" arrivalSpeed="14.29" duration="317.00" routeLength="2434.81" waitingTime="100.00" waitingCount="5" stopTime="0.00" timeLoss="147.34" rerouteNo="0" devices="vehroute_12 tripinfo_12 fcd_12" vType="DEFAULT_VEHTYPE" speedFactor="1.05" vaporized=""/>
    <tripinfo id="14" depart="615.00" departLane="a1b_0" departPos="5.10" departSpeed="0.00" departDelay="0.61" arrival="874.00" arrivalLane="b2[1][1][1]b_0" arrivalPos="325.74" arrivalSpeed="13.18" duration="259.00" routeLength="2433.28" waitingTime="53.00" waitingCount="2" stopTime="0.00" timeLoss="79.95" rerouteNo="0" devices="vehroute_14 tripinfo_14 fcd_14" vType="DEFAULT_VEHTYPE" speedFactor="0.99" vaporized=""/>
    <tripinfo id="15" depart="626.00" departLane="a1b_0" departPos="5.10" departSpeed="0.00" departDelay="0.49" arrival="874.00" arrivalLane="b2[1][1][1]b_1" arrivalPos="325.74" arrivalSpeed="12.09" duration="248.00" routeLength="2433.28" waitingTime="28.00" waitingCount="2" stopTime="0.00" timeLoss="56.76" rerouteNo="0" devices="vehroute_15 tripinfo_15 fcd_15" vType="DEFAULT_VEHTYPE" speedFactor="0.93" vaporized=""/>
    <tripinfo id="17" depart="640.00" departLane="a210_0" departPos="5.10" departSpeed="0.00" departDelay="0.04" arrival="951.00" arrivalLane="b3[1]b_0" arrivalPos="239.77" arrivalSpeed="12.27" duration="311.00" routeLength="3030.71" waitingTime="44.00" waitingCount="3" stopTime="0.00" timeLoss="77.94" rerouteNo="0" devices="vehroute_17 tripinfo_17 fcd_17" vType="DEFAULT_VEHTYPE" speedFactor="0.94" vaporized=""/>
    <tripinfo id="19" depart="691.00" departLane="a1b_0" departPos="5.10" departSpeed="0.00" departDelay="0.58" arrival="994.00" arrivalLane="b2[1][1][1]b_0" arrivalPos="325.74" arrivalSpeed="15.79" duration="303.00" routeLength="2430.32" waitingTime="88.00" waitingCount="4" stopTime="0.00" timeLoss="149.25" rerouteNo="0" devices="vehroute_19 tripinfo_19 fcd_19" vType="DEFAULT_VEHTYPE" speedFactor="1.16" vaporized=""/>
    <tripinfo id="18" depart="683.00" departLane="a1b_0" departPos="5.10" departSpeed="0.00" departDelay="0.10" arrival="999.00" arrivalLane="b2[1][1][1]b_0" arrivalPos="325.74" arrivalSpeed="12.16" duration="316.00" routeLength="2430.32" waitingTime="91.00" waitingCount="4" stopTime="0.00" timeLoss="126.06" rerouteNo="0" devices="vehroute_18 tripinfo_18 fcd_18" vType="DEFAULT_VEHTYPE" speedFactor="0.94" vaporized=""/>
    <tripinfo id="16" depart="637.00" departLane="a1b_0" departPos="5.10" departSpeed="0.00" departDelay="0.21" arrival="1003.00" arrivalLane="b2[1][1][1]b_0" arrivalPos="325.74" arrivalSpeed="11.39" duration="366.00" routeLength="2437.77" waitingTime="123.00" waitingCount="5" stopTime="0.00" timeLoss="163.14" rerouteNo="0" devices="vehroute_16 tripinfo_16 fcd_16" vType="DEFAULT_VEHTYPE" speedFactor="0.88" vaporized=""/>
    <tripinfo id="20" depart="716.00" departLane="a210_0" departPos="5.10" departSpeed="0.00" departDelay="0.12" arrival="1094.00" arrivalLane="b3[1]b_0" arrivalPos="239.77" arrivalSpeed="13.72" duration="378.00" routeLength="3027.75" waitingTime="121.00" waitingCount="3" stopTime="0.00" timeLoss="162.81" rerouteNo="0" devices="vehroute_20 tripinfo_20 fcd_20" vType="DEFAULT_VEHTYPE" speedFactor="1.02" vaporized=""/>
    <tripinfo id="22" depart="764.00" departLane="a210_0" departPos="5.10" departSpeed="0.00" departDelay="0.86" arrival="1094.00" arrivalLane="b3[1]b_1" arrivalPos="239.77" arrivalSpeed="12.42" duration="330.00" routeLength="3025.46" waitingTime="70.00" waitingCount="2" stopTime="0.00" timeLoss="105.15" rerouteNo="0" devices="vehroute_22 tripinfo_22 fcd_22" vType="DEFAULT_VEHTYPE" speedFactor="0.97" vaporized=""/>
    <tripinfo id="28" depart="895.00" departLane="a1b_0" departPos="5.10" departSpeed="0.00" departDelay="0.11" arrival="1119.00" arrivalLane="b2[1][1][1]b_1" arrivalPos="325.74" arrivalSpeed="15.54" duration="224.00" routeLength="2430.32" waitingTime="8.00" waitingCount="2" stopTime="0.00" timeLoss="66.87" rerouteNo="0" devices="vehroute_28 tripinfo_28 fcd_28" vType="DEFAULT_VEHTYPE" speedFactor="1.13" vaporized=""/>
    <tripinfo id="21" depart="763.00" departLane="a1b_0" departPos="5.10" departSpeed="0.00" departDelay="0.68" arrival="1122.00" arrivalLane="b2[1][1][1]b_0" arrivalPos="325.74" arrivalSpeed="13.86" duration="359.00" routeLength="2437.77" waitingTime="147.00" waitingCount="4" stopTime="0.00" timeLoss="182.49" rerouteNo="0" devices="vehroute_21 tripinfo_21 fcd_21" vType="DEFAULT_VEHTYPE" speedFactor="1.01" vaporized=""/>
    <tripinfo id="26" depart="838.00" departLane="a1b_0" departPos="5.10" departSpeed="0.00" departDelay="0.82" arrival="1125.00" arrivalLane="b2[1][1][1]b_0" arrivalPos="325.74" arrivalSpeed="11.60" duration="287.00" routeLength="2430.32" waitingTime="59.00" waitingCount="3" stopTime="0.00" timeLoss="93.40" rerouteNo="0" devices="vehroute_26 tripinfo_26 fcd_26" vType="DEFAULT_VEHTYPE" speedFactor="0.92" vaporized=""/>
    <tripinfo id="27" depart="841.00" departLane="a1b_0" departPos="5.10" departSpeed="0.00" departDelay="3.48" arrival="1126.00" arrivalLane="b2[1][1][1]b_1" arrivalPos="325.74" arrivalSpeed="12.25" duration="285.00" routeLength="2433.28" waitingTime="47.00" waitingCount="2" stopTime="0.00" timeLoss="97.64" rerouteNo="0" devices="vehroute_27 tripinfo_27 fcd_27" vType="DEFAULT_VEHTYPE" speedFactor="0.95" vaporized=""/>
    <tripinfo id="23" depart="795.00" departLane="a1b_0" departPos="5.10" departSpeed="0.00" departDelay="0.11" arrival="1128.00" arrivalLane="b2[1][1][1]b_0" arrivalPos="325.74" arrivalSpeed="11.49" duration="333.00" routeLength="2433.28" waitingTime="100.00" waitingCount="3" stopTime="0.00" timeLoss="133.28" rerouteNo="0" devices="vehroute_23 tripinfo_23 fcd_23" vType="DEFAULT_VEHTYPE" speedFactor="0.89" vaporized=""/>
    <tripinfo id="25" depart="825.00" departLane="a1b_0" departPos="5.10" departSpeed="0.00" departDelay="0.98" arrival="1128.00" arrivalLane="b2[1][1][1]b_1" arrivalPos="325.74" arrivalSpeed="11.41" duration="303.00" routeLength="2434.81" waitingTime="61.00" waitingCount="2" stopTime="0.00" timeLoss="98.98" rerouteNo="0" devices="vehroute_25 tripinfo_25 fcd_25" vType="DEFAULT_VEHTYPE" speedFactor="0.87" vaporized=""/>
    <tripinfo id="24" depart="806.00" departLane="a1b_0" departPos="5.10" departSpeed="0.00" departDelay="0.99" arrival="1132.00" arrivalLane="b2[1][1][1]b_0" arrivalPos="325.74" arrivalSpeed="10.47" duration="326.00" routeLength="2433.28" waitingTime="84.00" waitingCount="1" stopTime="0.00" timeLoss="111.41" rerouteNo="0" devices="vehroute_24 tripinfo_24 fcd_24" vType="DEFAULT_VEHTYPE" speedFactor="0.83" vaporized=""/>
    <tripinfo id="30" depart="959.00" departLane="a1b_0" departPos="5.10" departSpeed="0.00" departDelay="1.94" arrival="1244.00" arrivalLane="b2[1][1][1]b_0" arrivalPos="325.74" arrivalSpeed="15.29" duration="285.00" routeLength="2437.77" waitingTime="96.00" waitingCount="4" stopTime="0.00" timeLoss="133.86" rerouteNo="0" devices="vehroute_30 tripinfo_30 fcd_30" vType="DEFAULT_VEHTYPE" speedFactor="1.18" vaporized=""/>
    <tripinfo id="31" depart="1000.00" departLane="a1b_0" departPos="5.10" departSpeed="0.00" departDelay="0.09" arrival="1245.00" arrivalLane="b2[1][1][1]b_1" arrivalPos="325.74" arrivalSpeed="15.09" duration="245.00" routeLength="2430.32" waitingTime="53.00" waitingCount="3" stopTime="0.00" timeLoss="90.85" rerouteNo="0" devices="vehroute_31 tripinfo_31 fcd_31" vType="DEFAULT_VEHTYPE" speedFactor="1.15" vaporized=""/>
    <tripinfo id="32" depart="1071.00" departLane="a1b_0" departPos="5.10" departSpeed="0.00" departDelay="0.52" arrival="1373.00" arrivalLane="b2[1][1][1]b_0" arrivalPos="325.74" arrivalSpeed="12.90" duration="302.00" routeLength="2437.77" waitingTime="87.00" waitingCount="4" stopTime="0.00" timeLoss="124.05" rerouteNo="0" devices="vehroute_32 tripinfo_32 fcd_32" vType="DEFAULT_VEHTYPE" speedFactor="1.01" vaporized=""/>
    <tripinfo id="29" depart="956.00" departLane="a1b_0" departPos="5.10" departSpeed="0.00" departDelay="0.61" arrival="1375.00" arrivalLane="b2[1][1][1]b_0" arrivalPos="325.74" arrivalSpeed="12.44" duration="419.00" routeLength="2430.32" waitingTime="185.00" waitingCount="5" stopTime="0.00" timeLoss="228.89" rerouteNo="0" devices="vehroute_29 tripinfo_29 fcd_29" vType="DEFAULT_VEHTYPE" speedFactor="0.93" vaporized=""/>
    <tripinfo id="33" depart="1130.00" departLane="a210_0" departPos="5.10" departSpeed="0.00" departDelay="0.58" arrival="1385.00" arrivalLane="ba1[1]_2" arrivalPos="0.20" arrivalSpeed="13.32" duration="255.00" routeLength="2602.48" waitingTime="42.00" waitingCount="3" stopTime="0.00" timeLoss="91.14" rerouteNo="0" devices="vehroute_33 tripinfo_33 fcd_33" vType="DEFAULT_VEHTYPE" speedFactor="1.17" vaporized=""/>
    <tripinfo id="34" depart="1144.00" departLane="a210_0" departPos="5.10" departSpeed="0.00" departDelay="0.89" arrival="1446.00" arrivalLane="b3[1]b_0" arrivalPos="239.77" arrivalSpeed="13.73" duration="302.00" routeLength="3030.71" waitingTime="58.00" waitingCount="2" stopTime="0.00" timeLoss="81.40" rerouteNo="0" devices="vehroute_34 tripinfo_34 fcd_34" vType="DEFAULT_VEHTYPE" speedFactor="0.99" vaporized=""/>
    <tripinfo id="35" depart="1162.00" departLane="a1b_0" departPos="5.10" departSpeed="0.00" departDelay="0.90" arrival="1472.00" arrivalLane="b2[1][1][1]b_0" arrivalPos="325.74" arrivalSpeed="13.63" duration="310.00" routeLength="2430.32" waitingTime="101.00" waitingCount="3" stopTime="0.00" timeLoss="135.89" rerouteNo="0" devices="vehroute_35 tripinfo_35 fcd_35" vType="DEFAULT_VEHTYPE" speedFactor="1.02" vaporized=""/>
    <tripinfo id="36" depart="1165.00" departLane="a1b_0" departPos="5.10" departSpeed="0.00" departDelay="0.40" arrival="1474.00" arrivalLane="b2[1][1][1]b_0" arrivalPos="325.74" arrivalSpeed="13.37" duration="309.00" routeLength="2437.77" waitingTime="94.00" waitingCount="3" stopTime="0.00" timeLoss="125.88" rerouteNo="0" devices="vehroute_36 tripinfo_36 fcd_36" vType="DEFAULT_VEHTYPE" speedFactor="0.97" vaporized=""/>
    <tripinfo id="37" depart="1276.00" departLane="a210_0" departPos="5.10" departSpeed="0.00" departDelay="0.75" arrival="1567.00" arrivalLane="b3[1]b_0" arrivalPos="239.77" arrivalSpeed="15.25" duration="291.00" routeLength="3030.71" waitingTime="70.00" waitingCount="4" stopTime="0.00" timeLoss="104.88" rerouteNo="0" devices="vehroute_37 tripinfo_37 fcd_37" vType="DEFAULT_VEHTYPE" speedFactor="1.18" vaporized=""/>
    <tripinfo id="38" depart="1314.00" departLane="a1b_0" departPos="5.10" departSpeed="0.00" departDelay="0.73" arrival="1603.00" arrivalLane="b2[1][1][1]b_0" arrivalPos="325.74" arrivalSpeed="14.63" duration="289.00" routeLength="2437.77" waitingTime="89.00" waitingCount="3" stopTime="0.00" timeLoss="127.63" rerouteNo="0" devices="vehroute_38 tripinfo_38 fcd_38" vType="DEFAULT_VEHTYPE" speedFactor="1.10" vaporized=""/>
    <tripinfo id="39" depart="1338.00" departLane="a1b_0" departPos="5.10" departSpeed="0.00" departDelay="0.93" arrival="1608.00" arrivalLane="b2[1][1][1]b_0" arrivalPos="325.74" arrivalSpeed="12.25" duration="270.00" routeLength="2433.28" waitingTime="45.00" waitingCount="2" stopTime="0.00" timeLoss="73.02" rerouteNo="0" devices="vehroute_39 tripinfo_39 fcd_39" vType="DEFAULT_VEHTYPE" speedFactor="0.90" vaporized=""/>
    <tripinfo id="42" depart="1408.00" departLane="a210_0" departPos="5.10" departSpeed="0.00" departDelay="0.25" arrival="1695.00" arrivalLane="b3[1]b_0" arrivalPos="239.77" arrivalSpeed="14.21" duration="287.00" routeLength="3030.71" waitingTime="49.00" waitingCount="3" stopTime="0.00" timeLoss="85.87" rerouteNo="0" devices="vehroute_42 tripinfo_42 fcd_42" vType="DEFAULT_VEHTYPE" speedFactor="1.09" vaporized=""/>
    <tripinfo id="40" depart="1392.00" departLane="a1b_0" departPos="5.10" departSpeed="0.00" departDelay="0.74" arrival="1729.00" arrivalLane="b2[1][1][1]b_0" arrivalPos="325.74" arrivalSpeed="13.81" duration="337.00" routeLength="2430.32" waitingTime="119.00" waitingCount="5" stopTime="0.00" timeLoss="164.53" rerouteNo="0" devices="vehroute_40 tripinfo_40 fcd_40" vType="DEFAULT_VEHTYPE" speedFactor="1.03" vaporized=""/>
    <tripinfo id="43" depart="1430.00" departLane="a1b_0" departPos="5.10" departSpeed="0.00" departDelay="0.16" arrival="1729.00" arrivalLane="b2[1][1][1]b_1" arrivalPos="325.74" arrivalSpeed="13.91" duration="299.00" routeLength="2430.32" waitingTime="66.00" waitingCount="3" stopTime="0.00" timeLoss="127.26" rerouteNo="0" devices="vehroute_43 tripinfo_43 fcd_43" vType="DEFAULT_VEHTYPE" speedFactor="1.04" vaporized=""/>
    <tripinfo id="41" depart="1395.00" departLane="a1b_0" departPos="5.10" departSpeed="0.00" departDelay="1.52" arrival="1731.00" arrivalLane="b2[1][1][1]b_1" arrivalPos="325.74" arrivalSpeed="12.04" duration="336.00" routeLength="2434.81" waitingTime="107.00" waitingCount="5" stopTime="0.00" timeLoss="150.52" rerouteNo="0" devices="vehroute_41 tripinfo_41 fcd_41" vType="DEFAULT_VEHTYPE" speedFactor="0.96" vaporized=""/>
    <tripinfo id="44" depart="1458.00" departLane="a1b_0" departPos="5.10" departSpeed="0.00" departDelay="0.73" arrival="1731.00" arrivalLane="b2[1][1][1]b_0" arrivalPos="325.74" arrivalSpeed="13.57" duration="273.00" routeLength="2433.28" waitingTime="61.00" waitingCount="2" stopTime="0.00" timeLoss="102.75" rerouteNo="0" devices="vehroute_44 tripinfo_44 fcd_44" vType="DEFAULT_VEHTYPE" speedFactor="1.04" vaporized=""/>
    <tripinfo id="45" depart="1507.00" departLane="a210_0" departPos="5.10" departSpeed="0.00" departDelay="0.11" arrival="1839.00" arrivalLane="b3[1]b_0" arrivalPos="239.77" arrivalSpeed="14.23" duration="332.00" routeLength="3030.71" waitingTime="92.00" waitingCount="4" stopTime="0.00" timeLoss="130.30" rerouteNo="0" devices="vehroute_45 tripinfo_45 fcd_45" vType="DEFAULT_VEHTYPE" speedFactor="1.09" vaporized=""/>
    <tripinfo id="46" depart="1550.00" departLane="a210_0" departPos="5.10" departSpeed="0.00" departDelay="0.79" arrival="1894.00" arrivalLane="ba1[1]_2" arrivalPos="0.20" arrivalSpeed="11.07" duration="344.00" routeLength="2602.48" waitingTime="100.00" waitingCount="7" stopTime="0.00" timeLoss="153.07" rerouteNo="0" devices="vehroute_46 tripinfo_46 fcd_46" vType="DEFAULT_VEHTYPE" speedFactor="1.00" vaporized=""/>
    <tripinfo id="51" depart="1798.00" departLane="a40_0" departPos="5.10" departSpeed="0.00" departDelay="0.40" arrival="2078.00" arrivalLane="b3[1]b_0" arrivalPos="239.77" arrivalSpeed="16.17" duration="280.00" routeLength="3006.76" waitingTime="43.00" waitingCount="4" stopTime="0.00" timeLoss="91.30" rerouteNo="0" devices="vehroute_51 tripinfo_51 fcd_51" vType="DEFAULT_VEHTYPE" speedFactor="1.17" vaporized=""/>
    <tripinfo id="54" depart="1892.00" departLane="a1b_0" departPos="5.10" departSpeed="0.00" departDelay="0.18" arrival="2095.00" arrivalLane="b2[1][1][1]b_1" arrivalPos="325.74" arrivalSpeed="12.81" duration="203.00" routeLength="2433.28" waitingTime="1.00" waitingCount="1" stopTime="0.00" timeLoss="25.72" rerouteNo="0" devices="vehroute_54 tripinfo_54 fcd_54" vType="DEFAULT_VEHTYPE" speedFactor="1.00" vaporized=""/>
    <tripinfo id="52" depart="1805.00" departLane="a1b_0" departPos="5.10" departSpeed="0.00" departDelay="0.85" arrival="2096.00" arrivalLane="b2[1][1][1]b_0" arrivalPos="325.74" arrivalSpeed="13.99" duration="291.00" routeLength="2434.81" waitingTime="69.00" waitingCount="4" stopTime="0.00" timeLoss="116.02" rerouteNo="0" devices="vehroute_52 tripinfo_52 fcd_52" vType="DEFAULT_VEHTYPE" speedFactor="1.02" vaporized=""/>
    <tripinfo id="47" depart="1722.00" departLane="a1b_0" departPos="5.10" departSpeed="0.00" departDelay="0.36" arrival="2100.00" arrivalLane="b2[1][1][1]b_0" arrivalPos="325.74" arrivalSpeed="12.15" duration="378.00" routeLength="2430.32" waitingTime="138.00" waitingCount="6" stopTime="0.00" timeLoss="181.31" rerouteNo="0" devices="vehroute_47 tripinfo_47 fcd_47" vType="DEFAULT_VEHTYPE" speedFactor="0.90" vaporized=""/>
    <tripinfo id="48" depart="1726.00" departLane="a1b_0" departPos="5.10" departSpeed="0.00" departDelay="0.32" arrival="2103.00" arrivalLane="b2[1][1][1]b_0" arrivalPos="325.74" arrivalSpeed="11.32" duration="377.00" routeLength="2434.81" waitingTime="121.00" waitingCount="5" stopTime="0.00" timeLoss="174.19" rerouteNo="0" devices="vehroute_48 tripinfo_48 fcd_48" vType="DEFAULT_VEHTYPE" speedFactor="0.88" vaporized=""/>
    <tripinfo id="49" depart="1734.00" departLane="a1b_0" departPos="5.10" departSpeed="0.00" departDelay="0.11" arrival="2103.00" arrivalLane="b2[1][1][1]b_2" arrivalPos="325.74" arrivalSpeed="11.52" duration="369.00" routeLength="2430.32" waitingTime="109.00" waitingCount="5" stopTime="0.00" timeLoss="159.71" rerouteNo="0" devices="vehroute_49 tripinfo_49 fcd_49" vType="DEFAULT_VEHTYPE" speedFactor="0.85" vaporized=""/>
    <tripinfo id="50" depart="1745.00" departLane="a1b_0" departPos="5.10" departSpeed="0.00" departDelay="0.43" arrival="2103.00" arrivalLane="b2[1][1][1]b_1" arrivalPos="325.74" arrivalSpeed="11.16" duration="358.00" routeLength="2433.28" waitingTime="108.00" waitingCount="4" stopTime="0.00" timeLoss="150.42" rerouteNo="0" devices="vehroute_50 tripinfo_50 fcd_50" vType="DEFAULT_VEHTYPE" speedFactor="0.85" vaporized=""/>
    <tripinfo id="53" depart="1822.00" departLane="a1b_0" departPos="5.10" departSpeed="0.00" departDelay="0.01" arrival="2104.00" arrivalLane="b2[1][1][1]b_2" arrivalPos="325.74" arrivalSpeed="14.01" duration="282.00" routeLength="2430.32" waitingTime="61.00" waitingCount="4" stopTime="0.00" timeLoss="119.81" rerouteNo="0" devices="vehroute_53 tripinfo_53 fcd_53" vType="DEFAULT_VEHTYPE" speedFactor="1.10" vaporized=""/>
    <tripinfo id="55" depart="1917.00" departLane="a1b_0" departPos="5.10" departSpeed="0.00" departDelay="0.07" arrival="2238.00" arrivalLane="b2[1][1][1]b_0" arrivalPos="325.74" arrivalSpeed="13.54" duration="321.00" routeLength="2437.77" waitingTime="109.00" waitingCount="4" stopTime="0.00" timeLoss="142.58" rerouteNo="0" devices="vehroute_55 tripinfo_55 fcd_55" vType="DEFAULT_VEHTYPE" speedFactor="1.00" vaporized=""/>
    <tripinfo id="56" depart="1944.00" departLane="a210_0" departPos="5.10" departSpeed="0.00" departDelay="0.96" arrival="2248.00" arrivalLane="b3[1]b_0" arrivalPos="239.77" arrivalSpeed="12.31" duration="304.00" routeLength="3027.75" waitingTime="17.00" waitingCount="3" stopTime="0.00" timeLoss="59.98" rerouteNo="0" devices="vehroute_56 tripinfo_56 fcd_56" vType="DEFAULT_VEHTYPE" speedFactor="0.90" vaporized=""/>
    <tripinfo id="61" depart="2071.00" departLane="a1b_0" departPos="5.10" departSpeed="0.00" departDelay="0.41" arrival="2360.00" arrivalLane="b2[1][1][1]b_0" arrivalPos="325.74" arrivalSpeed="15.09" duration="289.00" routeLength="2437.77" waitingTime="94.00" waitingCount="4" stopTime="0.00" timeLoss="129.95" rerouteNo="0" devices="vehroute_61 tripinfo_61 fcd_61" vType="DEFAULT_VEHTYPE" speedFactor="1.12" vaporized=""/>
    <tripinfo id="59" depart="2063.00" departLane="a1b_0" departPos="5.10" departSpeed="0.00" departDelay="0.05" arrival="2364.00" arrivalLane="b2[1][1][1]b_0" arrivalPos="325.74" arrivalSpeed="12.85" duration="301.00" routeLength="2433.28" waitingTime="81.00" waitingCount="4" stopTime="0.00" timeLoss="117.84" rerouteNo="0" devices="vehroute_59 tripinfo_59 fcd_59" vType="DEFAULT_VEHTYPE" speedFactor="0.97" vaporized=""/>
    <tripinfo id="62" depart="2096.00" departLane="a210_0" departPos="5.10" departSpeed="0.00" departDelay="0.27" arrival="2375.00" arrivalLane="ba1[1]_2" arrivalPos="0.20" arrivalSpeed="11.42" duration="279.00" routeLength="2602.48" waitingTime="48.00" waitingCount="5" stopTime="0.00" timeLoss="90.56" rerouteNo="0" devices="vehroute_62 tripinfo_62 fcd_62" vType="DEFAULT_VEHTYPE" speedFactor="1.02" vaporized=""/>
    <tripinfo id="57" depart="2032.00" departLane="a210_0" departPos="5.10" departSpeed="0.00" departDelay="0.01" arrival="2406.00" arrivalLane="b3[1]b_0" arrivalPos="239.77" arrivalSpeed="15.22" duration="374.00" routeLength="3025.46" waitingTime="130.00" waitingCount="6" stopTime="0.00" timeLoss="182.33" rerouteNo="0" devices="vehroute_57 tripinfo_57 fcd_57" vType="DEFAULT_VEHTYPE" speedFactor="1.14" vaporized=""/>
    <tripinfo id="60" depart="2069.00" departLane="a210_0" departPos="5.10" departSpeed="0.00" departDelay="0.49" arrival="2408.00" arrivalLane="b3[1]b_0" arrivalPos="239.77" arrivalSpeed="14.00" duration="339.00" routeLength="3027.75" waitingTime="100.00" waitingCount="4" stopTime="0.00" timeLoss="136.67" rerouteNo="0" devices="vehroute_60 tripinfo_60 fcd_60" vType="DEFAULT_VEHTYPE" speedFactor="1.08" vaporized=""/>
    <tripinfo id="58" depart="2040.00" departLane="a210_0" departPos="5.10" departSpeed="0.00" departDelay="0.33" arrival="2412.00" arrivalLane="b3[1]b_0" arrivalPos="239.77" arrivalSpeed="13.14" duration="372.00" routeLength="3030.71" waitingTime="112.00" waitingCount="5" stopTime="0.00" timeLoss="157.50" rerouteNo="0" devices="vehroute_58 tripinfo_58 fcd_58" vType="DEFAULT_VEHTYPE" speedFactor="1.02" vaporized=""/>
    <tripinfo id="63" depart="2140.00" departLane="a1b_0" departPos="5.10" departSpeed="0.00" departDelay="0.55" arrival="2457.00" arrivalLane="b2[1][1][1]b_0" arrivalPos="325.74" arrivalSpeed="13.55" duration="317.00" routeLength="2434.81" waitingTime="102.00" waitingCount="3" stopTime="0.00" timeLoss="136.80" rerouteNo="0" devices="vehroute_63 tripinfo_63 fcd_63" vType="DEFAULT_VEHTYPE" speedFactor="0.99" vaporized=""/>
    <tripinfo id="64" depart="2170.00" departLane="a1b_0" departPos="5.10" departSpeed="0.00" departDelay="0.81" arrival="2461.00" arrivalLane="b2[1][1][1]b_0" arrivalPos="325.74" arrivalSpeed="12.13" duration="291.00" routeLength="2430.32" waitingTime="71.00" waitingCount="2" stopTime="0.00" timeLoss="101.62" rerouteNo="0" devices="vehroute_64 tripinfo_64 fcd_64" vType="DEFAULT_VEHTYPE" speedFactor="0.94" vaporized=""/>
    <tripinfo id="65" depart="2183.00" departLane="a1b_0" departPos="5.10" departSpeed="0.00" departDelay="0.06" arrival="2469.00" arrivalLane="b2[1][1][1]b_0" arrivalPos="325.74" arrivalSpeed="11.40" duration="286.00" routeLength="2433.28" waitingTime="61.00" waitingCount="1" stopTime="0.00" timeLoss="83.95" rerouteNo="0" devices="vehroute_65 tripinfo_65 fcd_65" vType="DEFAULT_VEHTYPE" speedFactor="0.88" vaporized=""/>
    <tripinfo id="67" depart="2229.00" departLane="a210_0" departPos="5.10" departSpeed="0.00" departDelay="0.79" arrival="2492.00" arrivalLane="ba1[1]_2" arrivalPos="0.20" arrivalSpeed="12.04" duration="263.00" routeLength="2602.48" waitingTime="10.00" waitingCount="2" stopTime="0.00" timeLoss="53.95" rerouteNo="0" devices="vehroute_67 tripinfo_67 fcd_67" vType="DEFAULT_VEHTYPE" speedFactor="0.91" vaporized=""/>