<?xml version="1.0" encoding="UTF-8"?>

<!-- generated on 2025-03-21 17:59:42 by Eclipse SUMO sumo Version 1.21.0
<sumoConfiguration xmlns:xsi="http://www.w3.org/2001/XMLSchema-instance" xsi:noNamespaceSchemaLocation="http://sumo.dlr.de/xsd/sumoConfiguration.xsd">

    <input>
        <net-file value="${STATICPATH}/joined_lanes.net.xml"/>
        <route-files value="${SIMULATIONPATH}/generatedRoutes.rou.xml"/>
        <additional-files value="${STATICPATH}/detectors.add.xml,${STATICPATH}/joined_vtypes.add.xml,${STATICPATH}/joined_tls.add.xml"/>
    </input>

    <output>
        <fcd-output value="${SIMULATIONPATH}/fcd.xml"/>
        <queue-output value="${SIMULATIONPATH}/queue.xml"/>
        <summary-output value="${SIMULATIONPATH}/summary.xml"/>
        <tripinfo-output value="${SIMULATIONPATH}/tripinfos.xml"/>
        <vehroute-output value="${SIMULATIONPATH}/vehroute.xml"/>
        <save-state.prefix value="configs\state"/>
    </output>

    <processing>
        <ignore-junction-blocker value="1"/>
        <ignore-route-errors value="true"/>
        <time-to-teleport value="-1"/>
    </processing>

    <report>
        <log value="C:/Users/fabio/Desktop/sumo_log.txt"/>
        <no-step-log value="true"/>
    </report>

    <emissions>
        <phemlight-path value="configs\./PHEMlight/"/>
    </emissions>

    <traci_server>
        <remote-port value="60266"/>
    </traci_server>

</sumoConfiguration>
-->

<tripinfos xmlns:xsi="http://www.w3.org/2001/XMLSchema-instance" xsi:noNamespaceSchemaLocation="http://sumo.dlr.de/xsd/tripinfo_file.xsd">
    <tripinfo id="0" depart="2.00" departLane="a210_0" departPos="5.10" departSpeed="0.00" departDelay="0.80" arrival="279.00" arrivalLane="b11[0]_0" arrivalPos="90.93" arrivalSpeed="13.79" duration="277.00" routeLength="2879.67" waitingTime="35.00" waitingCount="4" stopTime="0.00" timeLoss="78.10" rerouteNo="0" devices="vehroute_0 tripinfo_0 fcd_0" vType="DEFAULT_VEHTYPE" speedFactor="1.06" vaporized=""/>
    <tripinfo id="1" depart="64.00" departLane="a210_0" departPos="5.10" departSpeed="0.00" departDelay="0.32" arrival="415.00" arrivalLane="b11[0]_0" arrivalPos="90.93" arrivalSpeed="13.02" duration="351.00" routeLength="2879.67" waitingTime="87.00" waitingCount="3" stopTime="0.00" timeLoss="125.78" rerouteNo="0" devices="vehroute_1 tripinfo_1 fcd_1" vType="DEFAULT_VEHTYPE" speedFactor="0.94" vaporized=""/>
    <tripinfo id="2" depart="83.00" departLane="a210_0" departPos="5.10" departSpeed="0.00" departDelay="0.58" arrival="417.00" arrivalLane="b11[0]_0" arrivalPos="90.93" arrivalSpeed="12.88" duration="334.00" routeLength="2879.67" waitingTime="80.00" waitingCount="2" stopTime="0.00" timeLoss="123.94" rerouteNo="0" devices="vehroute_2 tripinfo_2 fcd_2" vType="DEFAULT_VEHTYPE" speedFactor="1.01" vaporized=""/>
    <tripinfo id="3" depart="154.00" departLane="a210_0" departPos="5.10" departSpeed="0.00" departDelay="0.52" arrival="418.00" arrivalLane="b11[0]_0" arrivalPos="90.93" arrivalSpeed="14.71" duration="264.00" routeLength="2879.67" waitingTime="8.00" waitingCount="2" stopTime="0.00" timeLoss="68.53" rerouteNo="0" devices="vehroute_3 tripinfo_3 fcd_3" vType="DEFAULT_VEHTYPE" speedFactor="1.08" vaporized=""/>
    <tripinfo id="4" depart="233.00" departLane="a210_0" departPos="5.10" departSpeed="0.00" departDelay="0.38" arrival="545.00" arrivalLane="b11[0]_0" arrivalPos="90.93" arrivalSpeed="13.07" duration="312.00" routeLength="2879.67" waitingTime="63.00" waitingCount="5" stopTime="0.00" timeLoss="107.09" rerouteNo="0" devices="vehroute_4 tripinfo_4 fcd_4" vType="DEFAULT_VEHTYPE" speedFactor="1.03" vaporized=""/>
    <tripinfo id="5" depart="269.00" departLane="a210_0" departPos="5.10" departSpeed="0.00" departDelay="0.33" arrival="680.00" arrivalLane="b11[0]_0" arrivalPos="90.93" arrivalSpeed="11.05" duration="411.00" routeLength="2879.67" waitingTime="115.00" waitingCount="5" stopTime="0.00" timeLoss="156.37" rerouteNo="0" devices="vehroute_5 tripinfo_5 fcd_5" vType="DEFAULT_VEHTYPE" speedFactor="0.83" vaporized=""/>
    <tripinfo id="6" depart="288.00" departLane="a210_0" departPos="5.10" departSpeed="0.00" departDelay="0.12" arrival="681.00" arrivalLane="b11[0]_0" arrivalPos="90.93" arrivalSpeed="13.41" duration="393.00" routeLength="2879.67" waitingTime="100.00" waitingCount="4" stopTime="0.00" timeLoss="191.63" rerouteNo="0" devices="vehroute_6 tripinfo_6 fcd_6" vType="DEFAULT_VEHTYPE" speedFactor="1.05" vaporized=""/>
    <tripinfo id="7" depart="439.00" departLane="a210_0" departPos="5.10" departSpeed="0.00" departDelay="0.66" arrival="804.00" arrivalLane="b11[0]_0" arrivalPos="90.93" arrivalSpeed="11.91" duration="365.00" routeLength="2879.67" waitingTime="88.00" waitingCount="4" stopTime="0.00" timeLoss="126.74" rerouteNo="0" devices="vehroute_7 tripinfo_7 fcd_7" vType="DEFAULT_VEHTYPE" speedFactor="0.89" vaporized=""/>
    <tripinfo id="8" depart="442.00" departLane="a210_0" departPos="5.10" departSpeed="0.00" departDelay="2.67" arrival="806.00" arrivalLane="b11[0]_0" arrivalPos="90.93" arrivalSpeed="12.70" duration="364.00" routeLength="2879.67" waitingTime="83.00" waitingCount="4" stopTime="0.00" timeLoss="137.86" rerouteNo="0" devices="vehroute_8 tripinfo_8 fcd_8" vType="DEFAULT_VEHTYPE" speedFactor="0.94" vaporized=""/>
    <tripinfo id="9" depart="458.00" departLane="a210_0" departPos="5.10" departSpeed="0.00" departDelay="0.08" arrival="810.00" arrivalLane="b11[0]_0" arrivalPos="90.93" arrivalSpeed="11.38" duration="352.00" routeLength="2879.67" waitingTime="62.00" waitingCount="3" stopTime="0.00" timeLoss="104.55" rerouteNo="0" devices="vehroute_9 tripinfo_9 fcd_9" vType="DEFAULT_VEHTYPE" speedFactor="0.86" vaporized=""/>
    <tripinfo id="10" depart="482.00" departLane="a210_0" departPos="5.10" departSpeed="0.00" departDelay="0.31" arrival="812.00" arrivalLane="b11[0]_0" arrivalPos="90.93" arrivalSpeed="14.83" duration="330.00" routeLength="2879.67" waitingTime="65.00" waitingCount="4" stopTime="0.00" timeLoss="135.60" rerouteNo="0" devices="vehroute_10 tripinfo_10 fcd_10" vType="DEFAULT_VEHTYPE" speedFactor="1.09" vaporized=""/>
    <tripinfo id="11" depart="502.00" departLane="a210_0" departPos="5.10" departSpeed="0.00" departDelay="0.89" arrival="814.00" arrivalLane="b11[0]_0" arrivalPos="90.93" arrivalSpeed="13.29" duration="312.00" routeLength="2879.67" waitingTime="39.00" waitingCount="3" stopTime="0.00" timeLoss="105.75" rerouteNo="0" devices="vehroute_11 tripinfo_11 fcd_11" vType="DEFAULT_VEHTYPE" speedFactor="1.03" vaporized=""/>
    <tripinfo id="12" depart="509.00" departLane="a210_0" departPos="5.10" departSpeed="0.00" departDelay="0.40" arrival="815.00" arrivalLane="b11[0]_0" arrivalPos="90.93" arrivalSpeed="14.15" duration="306.00" routeLength="2879.67" waitingTime="32.00" waitingCount="2" stopTime="0.00" timeLoss="103.70" rerouteNo="0" devices="vehroute_12 tripinfo_12 fcd_12" vType="DEFAULT_VEHTYPE" speedFactor="1.05" vaporized=""/>
    <tripinfo id="13" depart="538.00" departLane="a210_0" departPos="5.10" departSpeed="0.00" departDelay="0.74" arrival="912.00" arrivalLane="b11[0]_0" arrivalPos="90.93" arrivalSpeed="14.75" duration="374.00" routeLength="2879.67" waitingTime="144.00" waitingCount="5" stopTime="0.00" timeLoss="186.24" rerouteNo="0" devices="vehroute_13 tripinfo_13 fcd_13" vType="DEFAULT_VEHTYPE" speedFactor="1.12" vaporized=""/>
    <tripinfo id="14" depart="554.00" departLane="a210_0" departPos="5.10" departSpeed="0.00" departDelay="0.35" arrival="915.00" arrivalLane="b11[0]_0" arrivalPos="90.93" arrivalSpeed="12.65" duration="361.00" routeLength="2879.67" waitingTime="98.00" waitingCount="5" stopTime="0.00" timeLoss="147.20" rerouteNo="0" devices="vehroute_14 tripinfo_14 fcd_14" vType="DEFAULT_VEHTYPE" speedFactor="0.99" vaporized=""/>
    <tripinfo id="15" depart="615.00" departLane="a210_0" departPos="5.10" departSpeed="0.00" departDelay="0.61" arrival="919.00" arrivalLane="b11[0]_0" arrivalPos="90.93" arrivalSpeed="12.38" duration="304.00" routeLength="2879.67" waitingTime="31.00" waitingCount="4" stopTime="0.00" timeLoss="75.50" rerouteNo="0" devices="vehroute_15 tripinfo_15 fcd_15" vType="DEFAULT_VEHTYPE" speedFactor="0.93" vaporized=""/>
    <tripinfo id="16" depart="626.00" departLane="a210_0" departPos="5.10" departSpeed="0.00" departDelay="0.49" arrival="922.00" arrivalLane="b11[0]_0" arrivalPos="90.93" arrivalSpeed="11.45" duration="296.00" routeLength="2879.67" waitingTime="11.00" waitingCount="3" stopTime="0.00" timeLoss="55.24" rerouteNo="0" devices="vehroute_16 tripinfo_16 fcd_16" vType="DEFAULT_VEHTYPE" speedFactor="0.88" vaporized=""/>
    <tripinfo id="17" depart="637.00" departLane="a210_0" departPos="5.10" departSpeed="0.00" departDelay="0.21" arrival="924.00" arrivalLane="b11[0]_0" arrivalPos="90.93" arrivalSpeed="12.94" duration="287.00" routeLength="2879.67" waitingTime="6.00" waitingCount="2" stopTime="0.00" timeLoss="62.08" rerouteNo="0" devices="vehroute_17 tripinfo_17 fcd_17" vType="DEFAULT_VEHTYPE" speedFactor="0.94" vaporized=""/>
    <tripinfo id="18" depart="640.00" departLane="a210_0" departPos="5.10" departSpeed="0.00" departDelay="0.04" arrival="927.00" arrivalLane="b11[0]_0" arrivalPos="90.93" arrivalSpeed="12.05" duration="287.00" routeLength="2879.67" waitingTime="4.00" waitingCount="1" stopTime="0.00" timeLoss="61.20" rerouteNo="0" devices="vehroute_18 tripinfo_18 fcd_18" vType="DEFAULT_VEHTYPE" speedFactor="0.94" vaporized=""/>
    <tripinfo id="19" depart="683.00" departLane="a210_0" departPos="5.10" departSpeed="0.00" departDelay="0.10" arrival="1034.00" arrivalLane="b11[0]_0" arrivalPos="90.93" arrivalSpeed="15.20" duration="351.00" routeLength="2879.67" waitingTime="123.00" waitingCount="6" stopTime="0.00" timeLoss="169.12" rerouteNo="0" devices="vehroute_19 tripinfo_19 fcd_19" vType="DEFAULT_VEHTYPE" speedFactor="1.16" vaporized=""/>
    <tripinfo id="20" depart="691.00" departLane="a210_0" departPos="5.10" departSpeed="0.00" departDelay="0.58" arrival="1038.00" arrivalLane="b11[0]_0" arrivalPos="90.93" arrivalSpeed="14.07" duration="347.00" routeLength="2879.67" waitingTime="89.00" waitingCount="4" stopTime="0.00" timeLoss="138.23" rerouteNo="0" devices="vehroute_20 tripinfo_20 fcd_20" vType="DEFAULT_VEHTYPE" speedFactor="1.02" vaporized=""/>
    <tripinfo id="21" depart="716.00" departLane="a210_0" departPos="5.10" departSpeed="0.00" departDelay="0.12" arrival="1040.00" arrivalLane="b11[0]_0" arrivalPos="90.93" arrivalSpeed="13.22" duration="324.00" routeLength="2879.67" waitingTime="64.00" waitingCount="4" stopTime="0.00" timeLoss="114.60" rerouteNo="0" devices="vehroute_21 tripinfo_21 fcd_21" vType="DEFAULT_VEHTYPE" speedFactor="1.01" vaporized=""/>
    <tripinfo id="22" depart="763.00" departLane="a210_0" departPos="5.10" departSpeed="0.00" departDelay="0.68" arrival="1043.00" arrivalLane="b11[0]_0" arrivalPos="90.93" arrivalSpeed="13.28" duration="280.00" routeLength="2879.67" waitingTime="10.00" waitingCount="3" stopTime="0.00" timeLoss="62.55" rerouteNo="0" devices="vehroute_22 tripinfo_22 fcd_22" vType="DEFAULT_VEHTYPE" speedFactor="0.97" vaporized=""/>
    <tripinfo id="23" depart="766.00" departLane="a210_0" departPos="5.10" departSpeed="0.00" departDelay="2.86" arrival="1047.00" arrivalLane="b11[0]_0" arrivalPos="90.93" arrivalSpeed="12.32" duration="281.00" routeLength="2879.67" waitingTime="0.00" waitingCount="0" stopTime="0.00" timeLoss="42.92" rerouteNo="0" devices="vehroute_23 tripinfo_23 fcd_23" vType="DEFAULT_VEHTYPE" speedFactor="0.89" vaporized=""/>
    <tripinfo id="24" depart="795.00" departLane="a210_0" departPos="5.10" departSpeed="0.00" departDelay="0.11" arrival="1173.00" arrivalLane="b11[0]_0" arrivalPos="90.93" arrivalSpeed="10.40" duration="378.00" routeLength="2879.67" waitingTime="80.00" waitingCount="5" stopTime="0.00" timeLoss="122.42" rerouteNo="0" devices="vehroute_24 tripinfo_24 fcd_24" vType="DEFAULT_VEHTYPE" speedFactor="0.83" vaporized=""/>
    <tripinfo id="25" depart="806.00" departLane="a210_0" departPos="5.10" departSpeed="0.00" departDelay="0.99" arrival="1176.00" arrivalLane="b11[0]_0" arrivalPos="90.93" arrivalSpeed="11.46" duration="370.00" routeLength="2879.67" waitingTime="73.00" waitingCount="5" stopTime="0.00" timeLoss="127.21" rerouteNo="0" devices="vehroute_25 tripinfo_25 fcd_25" vType="DEFAULT_VEHTYPE" speedFactor="0.87" vaporized=""/>
    <tripinfo id="26" depart="825.00" departLane="a210_0" departPos="5.10" departSpeed="0.00" departDelay="0.98" arrival="1178.00" arrivalLane="b11[0]_0" arrivalPos="90.93" arrivalSpeed="12.42" duration="353.00" routeLength="2879.67" waitingTime="57.00" waitingCount="4" stopTime="0.00" timeLoss="122.07" rerouteNo="0" devices="vehroute_26 tripinfo_26 fcd_26" vType="DEFAULT_VEHTYPE" speedFactor="0.92" vaporized=""/>
    <tripinfo id="27" depart="838.00" departLane="a210_0" departPos="5.10" departSpeed="0.00" departDelay="0.82" arrival="1180.00" arrivalLane="b11[0]_0" arrivalPos="90.93" arrivalSpeed="12.15" duration="342.00" routeLength="2879.67" waitingTime="52.00" waitingCount="3" stopTime="0.00" timeLoss="118.61" rerouteNo="0" devices="vehroute_27 tripinfo_27 fcd_27" vType="DEFAULT_VEHTYPE" speedFactor="0.95" vaporized=""/>
    <tripinfo id="28" depart="841.00" departLane="a210_0" departPos="5.10" departSpeed="0.00" departDelay="3.48" arrival="1182.00" arrivalLane="b11[0]_0" arrivalPos="90.93" arrivalSpeed="14.72" duration="341.00" routeLength="2879.67" waitingTime="50.00" waitingCount="2" stopTime="0.00" timeLoss="153.56" rerouteNo="0" devices="vehroute_28 tripinfo_28 fcd_28" vType="DEFAULT_VEHTYPE" speedFactor="1.13" vaporized=""/>
    <tripinfo id="29" depart="877.00" departLane="a210_0" departPos="5.10" departSpeed="0.00" departDelay="0.48" arrival="1185.00" arrivalLane="b11[0]_0" arrivalPos="90.93" arrivalSpeed="11.86" duration="308.00" routeLength="2879.67" waitingTime="12.00" waitingCount="3" stopTime="0.00" timeLoss="80.73" rerouteNo="0" devices="vehroute_29 tripinfo_29 fcd_29" vType="DEFAULT_VEHTYPE" speedFactor="0.93" vaporized=""/>
    <tripinfo id="30" depart="895.00" departLane="a210_0" departPos="5.10" departSpeed="0.00" departDelay="0.11" arrival="1187.00" arrivalLane="b11[0]_0" arrivalPos="90.93" arrivalSpeed="15.07" duration="292.00" routeLength="2879.67" waitingTime="1.00" waitingCount="1" stopTime="0.00" timeLoss="112.31" rerouteNo="0" devices="vehroute_30 tripinfo_30 fcd_30" vType="DEFAULT_VEHTYPE" speedFactor="1.18" vaporized=""/>
    <tripinfo id="31" depart="956.00" departLane="a210_0" departPos="5.10" departSpeed="0.00" departDelay="0.61" arrival="1282.00" arrivalLane="b11[0]_0" arrivalPos="90.93" arrivalSpeed="15.53" duration="326.00" routeLength="2879.67" waitingTime="98.00" waitingCount="6" stopTime="0.00" timeLoss="143.49" rerouteNo="0" devices="vehroute_31 tripinfo_31 fcd_31" vType="DEFAULT_VEHTYPE" speedFactor="1.15" vaporized=""/>
    <tripinfo id="32" depart="959.00" departLane="a210_0" departPos="5.10" departSpeed="0.00" departDelay="1.94" arrival="1285.00" arrivalLane="b11[0]_0" arrivalPos="90.93" arrivalSpeed="12.96" duration="326.00" routeLength="2879.67" waitingTime="70.00" waitingCount="4" stopTime="0.00" timeLoss="115.28" rerouteNo="0" devices="vehroute_32 tripinfo_32 fcd_32" vType="DEFAULT_VEHTYPE" speedFactor="1.01" vaporized=""/>
    <tripinfo id="33" depart="962.00" departLane="a210_0" departPos="5.10" departSpeed="0.00" departDelay="4.33" arrival="1287.00" arrivalLane="b11[0]_0" arrivalPos="90.93" arrivalSpeed="15.65" duration="325.00" routeLength="2879.67" waitingTime="66.00" waitingCount="4" stopTime="0.00" timeLoss="143.06" rerouteNo="0" devices="vehroute_33 tripinfo_33 fcd_33" vType="DEFAULT_VEHTYPE" speedFactor="1.17" vaporized=""/>
    <tripinfo id="34" depart="1000.00" departLane="a210_0" departPos="5.10" departSpeed="0.00" departDelay="0.09" arrival="1410.00" arrivalLane="b11[0]_0" arrivalPos="90.93" arrivalSpeed="12.72" duration="410.00" routeLength="2879.67" waitingTime="150.00" waitingCount="7" stopTime="0.00" timeLoss="197.73" rerouteNo="0" devices="vehroute_34 tripinfo_34 fcd_34" vType="DEFAULT_VEHTYPE" speedFactor="0.99" vaporized=""/>
    <tripinfo id="35" depart="1071.00" departLane="a210_0" departPos="5.10" departSpeed="0.00" departDelay="0.52" arrival="1412.00" arrivalLane="b11[0]_0" arrivalPos="90.93" arrivalSpeed="13.69" duration="341.00" routeLength="2879.67" waitingTime="82.00" waitingCount="6" stopTime="0.00" timeLoss="133.41" rerouteNo="0" devices="vehroute_35 tripinfo_35 fcd_35" vType="DEFAULT_VEHTYPE" speedFactor="1.02" vaporized=""/>
    <tripinfo id="36" depart="1130.00" departLane="a210_0" departPos="5.10" departSpeed="0.00" departDelay="0.58" arrival="1415.00" arrivalLane="b11[0]_0" arrivalPos="90.93" arrivalSpeed="13.28" duration="285.00" routeLength="2879.67" waitingTime="26.00" waitingCount="3" stopTime="0.00" timeLoss="67.75" rerouteNo="0" devices="vehroute_36 tripinfo_36 fcd_36" vType="DEFAULT_VEHTYPE" speedFactor="0.97" vaporized=""/>
    <tripinfo id="37" depart="1144.00" departLane="a210_0" departPos="5.10" departSpeed="0.00" departDelay="0.89" arrival="1417.00" arrivalLane="b11[0]_0" arrivalPos="90.93" arrivalSpeed="15.12" duration="273.00" routeLength="2879.67" waitingTime="16.00" waitingCount="3" stopTime="0.00" timeLoss="93.52" rerouteNo="0" devices="vehroute_37 tripinfo_37 fcd_37" vType="DEFAULT_VEHTYPE" speedFactor="1.18" vaporized=""/>
    <tripinfo id="38" depart="1162.00" departLane="a210_0" departPos="5.10" departSpeed="0.00" departDelay="0.90" arrival="1419.00" arrivalLane="b11[0]_0" arrivalPos="90.93" arrivalSpeed="14.52" duration="257.00" routeLength="2879.67" waitingTime="11.00" waitingCount="2" stopTime="0.00" timeLoss="64.84" rerouteNo="0" devices="vehroute_38 tripinfo_38 fcd_38" vType="DEFAULT_VEHTYPE" speedFactor="1.10" vaporized=""/>
    <tripinfo id="39" depart="1165.00" departLane="a210_0" departPos="5.10" departSpeed="0.00" departDelay="0.40" arrival="1540.00" arrivalLane="b11[0]_0" arrivalPos="90.93" arrivalSpeed="11.24" duration="375.00" routeLength="2879.67" waitingTime="102.00" waitingCount="4" stopTime="0.00" timeLoss="140.71" rerouteNo="0" devices="vehroute_39 tripinfo_39 fcd_39" vType="DEFAULT_VEHTYPE" speedFactor="0.90" vaporized=""/>
    <tripinfo id="40" depart="1276.00" departLane="a210_0" departPos="5.10" departSpeed="0.00" departDelay="0.75" arrival="1542.00" arrivalLane="b11[0]_0" arrivalPos="90.93" arrivalSpeed="13.93" duration="266.00" routeLength="2879.67" waitingTime="11.00" waitingCount="1" stopTime="0.00" timeLoss="60.39" rerouteNo="0" devices="vehroute_40 tripinfo_40 fcd_40" vType="DEFAULT_VEHTYPE" speedFactor="1.03" vaporized=""/>
    <tripinfo id="41" depart="1314.00" departLane="a210_0" departPos="5.10" departSpeed="0.00" departDelay="0.73" arrival="1660.00" arrivalLane="b11[0]_0" arrivalPos="90.93" arrivalSpeed="13.10" duration="346.00" routeLength="2879.67" waitingTime="86.00" waitingCount="4" stopTime="0.00" timeLoss="125.23" rerouteNo="0" devices="vehroute_41 tripinfo_41 fcd_41" vType="DEFAULT_VEHTYPE" speedFactor="0.96" vaporized=""/>
    <tripinfo id="42" depart="1338.00" departLane="a210_0" departPos="5.10" departSpeed="0.00" departDelay="0.93" arrival="1661.00" arrivalLane="b11[0]_0" arrivalPos="90.93" arrivalSpeed="15.11" duration="323.00" routeLength="2879.67" waitingTime="70.00" waitingCount="6" stopTime="0.00" timeLoss="129.58" rerouteNo="0" devices="vehroute_42 tripinfo_42 fcd_42" vType="DEFAULT_VEHTYPE" speedFactor="1.09" vaporized=""/>
    <tripinfo id="43" depart="1392.00" departLane="a210_0" departPos="5.10" departSpeed="0.00" departDelay="0.74" arrival="1664.00" arrivalLane="b11[0]_0" arrivalPos="90.93" arrivalSpeed="13.58" duration="272.00" routeLength="2879.67" waitingTime="21.00" waitingCount="2" stopTime="0.00" timeLoss="68.05" rerouteNo="0" devices="vehroute_43 tripinfo_43 fcd_43" vType="DEFAULT_VEHTYPE" speedFactor="1.04" vaporized=""/>
    <tripinfo id="44" depart="1395.00" departLane="a210_0" departPos="5.10" departSpeed="0.00" departDelay="1.52" arrival="1666.00" arrivalLane="b11[0]_0" arrivalPos="90.93" arrivalSpeed="14.16" duration="271.00" routeLength="2879.67" waitingTime="20.00" waitingCount="2" stopTime="0.00" timeLoss="68.77" rerouteNo="0" devices="vehroute_44 tripinfo_44 fcd_44" vType="DEFAULT_VEHTYPE" speedFactor="1.04" vaporized=""/>
    <tripinfo id="45" depart="1413.00" departLane="a210_0" departPos="5.10" departSpeed="0.00" departDelay="0.38" arrival="1669.00" arrivalLane="b11[0]_0" arrivalPos="90.93" arrivalSpeed="13.94" duration="256.00" routeLength="2879.67" waitingTime="13.00" waitingCount="1" stopTime="0.00" timeLoss="61.14" rerouteNo="0" devices="vehroute_45 tripinfo_45 fcd_45" vType="DEFAULT_VEHTYPE" speedFactor="1.09" vaporized=""/>
    <tripinfo id="46" depart="1458.00" departLane="a210_0" departPos="5.10" departSpeed="0.00" departDelay="0.73" arrival="1780.00" arrivalLane="b11[0]_0" arrivalPos="90.93" arrivalSpeed="12.87" duration="322.00" routeLength="2879.67" waitingTime="68.00" waitingCount="5" stopTime="0.00" timeLoss="110.21" rerouteNo="0" devices="vehroute_46 tripinfo_46 fcd_46" vType="DEFAULT_VEHTYPE" speedFactor="1.00" vaporized=""/>
    <tripinfo id="47" depart="1507.00" departLane="a210_0" departPos="5.10" departSpeed="0.00" departDelay="0.11" arrival="1910.00" arrivalLane="b11[0]_0" arrivalPos="90.93" arrivalSpeed="12.13" duration="403.00" routeLength="2879.67" waitingTime="120.00" waitingCount="6" stopTime="0.00" timeLoss="168.89" rerouteNo="0" devices="vehroute_47 tripinfo_47 fcd_47" vType="DEFAULT_VEHTYPE" speedFactor="0.90" vaporized=""/>
    <tripinfo id="48" depart="1550.00" departLane="a210_0" departPos="5.10" departSpeed="0.00" departDelay="0.79" arrival="1914.00" arrivalLane="b11[0]_0" arrivalPos="90.93" arrivalSpeed="11.63" duration="364.00" routeLength="2879.67" waitingTime="81.00" waitingCount="3" stopTime="0.00" timeLoss="121.82" rerouteNo="0" devices="vehroute_48 tripinfo_48 fcd_48" vType="DEFAULT_VEHTYPE" speedFactor="0.88" vaporized=""/>
    <tripinfo id="49" depart="1722.00" departLane="a210_0" departPos="5.10" departSpeed="0.00" departDelay="0.36" arrival="2160.00" arrivalLane="b11[0]_0" arrivalPos="90.93" arrivalSpeed="11.67" duration="438.00" routeLength="2879.67" waitingTime="147.00" waitingCount="5" stopTime="0.00" timeLoss="189.11" rerouteNo="0" devices="vehroute_49 tripinfo_49 fcd_49" vType="DEFAULT_VEHTYPE" speedFactor="0.85" vaporized=""/>
    <tripinfo id="50" depart="1726.00" departLane="a210_0" departPos="5.10" departSpeed="0.00" departDelay="0.32" arrival="2163.00" arrivalLane="b11[0]_0" arrivalPos="90.93" arrivalSpeed="10.88" duration="437.00" routeLength="2879.67" waitingTime="141.00" waitingCount="5" stopTime="0.00" timeLoss="188.82" rerouteNo="0" devices="vehroute_50 tripinfo_50 fcd_50" vType="DEFAULT_VEHTYPE" speedFactor="0.85" vaporized=""/>
    <tripinfo id="51" depart="1734.00" departLane="a210_0" departPos="5.10" departSpeed="0.00" departDelay="0.11" arrival="2164.00" arrivalLane="b11[0]_0" arrivalPos="90.93" arrivalSpeed="14.39" duration="430.00" routeLength="2879.67" waitingTime="136.00" waitingCount="4" stopTime="0.00" timeLoss="249.17" rerouteNo="0" devices="vehroute_51 tripinfo_51 fcd_51" vType="DEFAULT_VEHTYPE" speedFactor="1.17" vaporized=""/>
    <tripinfo id="52" depart="1745.00" departLane="a210_0" departPos="5.10" departSpeed="0.00" departDelay="0.43" arrival="2167.00" arrivalLane="b11[0]_0" arrivalPos="90.93" arrivalSpeed="13.56" duration="422.00" routeLength="2879.67" waitingTime="134.00" waitingCount="4" stopTime="0.00" timeLoss="213.68" rerouteNo="0" devices="vehroute_52 tripinfo_52 fcd_52" vType="DEFAULT_VEHTYPE" speedFactor="1.02" vaporized=""/>
    <tripinfo id="53" depart="1798.00" departLane="a210_0" departPos="5.10" departSpeed="0.00" departDelay="0.40" arrival="2169.00" arrivalLane="b11[0]_0" arrivalPos="90.93" arrivalSpeed="14.55" duration="371.00" routeLength="2879.67" waitingTime="96.00" waitingCount="4" stopTime="0.00" timeLoss="177.68" rerouteNo="0" devices="vehroute_53 tripinfo_53 fcd_53" vType="DEFAULT_VEHTYPE" speedFactor="1.10" vaporized=""/>
    <tripinfo id="54" depart="1822.00" departLane="a210_0" departPos="5.10" departSpeed="0.00" departDelay="0.01" arrival="2172.00" arrivalLane="b11[0]_0" arrivalPos="90.93" arrivalSpeed="12.88" duration="350.00" routeLength="2879.67" waitingTime="74.00" waitingCount="3" stopTime="0.00" timeLoss="138.98" rerouteNo="0" devices="vehroute_54 tripinfo_54 fcd_54" vType="DEFAULT_VEHTYPE" speedFactor="1.00" vaporized=""/>
    <tripinfo id="55" depart="1892.00" departLane="a210_0" departPos="5.10" departSpeed="0.00" departDelay="0.18" arrival="2272.00" arrivalLane="b11[0]_0" arrivalPos="90.93" arrivalSpeed="13.06" duration="380.00" routeLength="2879.67" waitingTime="118.00" waitingCount="5" stopTime="0.00" timeLoss="167.87" rerouteNo="0" devices="vehroute_55 tripinfo_55 fcd_55" vType="DEFAULT_VEHTYPE" speedFactor="1.00" vaporized=""/>
    <tripinfo id="56" depart="1917.00" departLane="a210_0" departPos="5.10" departSpeed="0.00" departDelay="0.07" arrival="2275.00" arrivalLane="b11[0]_0" arrivalPos="90.93" arrivalSpeed="12.01" duration="358.00" routeLength="2879.67" waitingTime="85.00" waitingCount="3" stopTime="0.00" timeLoss="122.89" rerouteNo="0" devices="vehroute_56 tripinfo_56 fcd_56" vType="DEFAULT_VEHTYPE" speedFactor="0.90" vaporized=""/>
    <tripinfo id="57" depart="2032.00" departLane="a210_0" departPos="5.10" departSpeed="0.00" departDelay="0.01" arrival="2388.00" arrivalLane="b11[0]_0" arrivalPos="90.93" arrivalSpeed="15.19" duration="356.00" routeLength="2879.67" waitingTime="120.00" waitingCount="7" stopTime="0.00" timeLoss="170.90" rerouteNo="0" devices="vehroute_57 tripinfo_57 fcd_57" vType="DEFAULT_VEHTYPE" speedFactor="1.14" vaporized=""/>
    <tripinfo id="58" depart="2063.00" departLane="a210_0" departPos="5.10" departSpeed="0.00" departDelay="0.05" arrival="2391.00" arrivalLane="b11[0]_0" arrivalPos="90.93" arrivalSpeed="13.61" duration="328.00" routeLength="2879.67" waitingTime="82.00" waitingCount="3" stopTime="0.00" timeLoss="121.12" rerouteNo="0" devices="vehroute_58 tripinfo_58 fcd_58" vType="DEFAULT_VEHTYPE" speedFactor="1.02" vaporized=""/>
    <tripinfo id="59" depart="2071.00" departLane="a210_0" departPos="5.10" departSpeed="0.00" departDelay="0.41" arrival="2394.00" arrivalLane="b11[0]_0" arrivalPos="90.93" arrivalSpeed="12.63" duration="323.00" routeLength="2879.67" waitingTime="62.00" waitingCount="4" stopTime="0.00" timeLoss="104.99" rerouteNo="0" devices="vehroute_59 tripinfo_59 fcd_59" vType="DEFAULT_VEHTYPE" speedFactor="0.97" vaporized=""/>
    <tripinfo id="60" depart="2096.00" departLane="a210_0" departPos="5.10" departSpeed="0.00" departDelay="0.27" arrival="2396.00" arrivalLane="b11[0]_0" arrivalPos="90.93" arrivalSpeed="13.93" duration="300.00" routeLength="2879.67" waitingTime="39.00" waitingCount="3" stopTime="0.00" timeLoss="104.02" rerouteNo="0" devices="vehroute_60 tripinfo_60 fcd_60" vType="DEFAULT_VEHTYPE" speedFactor="1.08" vaporized=""/>
    <tripinfo id="61" depart="2140.00" departLane="a210_0" departPos="5.10" departSpeed="0.00" departDelay="0.55" arrival="2398.00" arrivalLane="b11[0]_0" arrivalPos="90.93" arrivalSpeed="15.42" duration="258.00" routeLength="2879.67" waitingTime="23.00" waitingCount="2" stopTime="0.00" timeLoss="68.79" rerouteNo="0" devices="vehroute_61 tripinfo_61 fcd_61" vType="DEFAULT_VEHTYPE" speedFactor="1.12" vaporized=""/>
    <tripinfo id="62" depart="2170.00" departLane="a210_0" departPos="5.10" departSpeed="0.00" departDelay="0.81" arrival="2518.00" arrivalLane="b11[0]_0" arrivalPos="90.93" arrivalSpeed="13.74" duration="348.00" routeLength="2879.67" waitingTime="95.00" waitingCount="5" stopTime="0.00" timeLoss="140.40" rerouteNo="0" devices="vehroute_62 tripinfo_62 fcd_62" vType="DEFAULT_VEHTYPE" speedFactor="1.02" vaporized=""/>
    <tripinfo id="63" depart="2183.00" departLane="a210_0" departPos="5.10" departSpeed="0.00" departDelay="0.06" arrival="2520.00" arrivalLane="b11[0]_0" arrivalPos="90.93" arrivalSpeed="12.64" duration="337.00" routeLength="2879.67" waitingTime="74.00" waitingCount="4" stopTime="0.00" timeLoss="123.07" rerouteNo="0" devices="vehroute_63 tripinfo_63 fcd_63" vType="DEFAULT_VEHTYPE" speedFactor="0.99" vaporized=""/>
    <tripinfo id="64" depart="2211.00" departLane="a210_0" departPos="5.10" departSpeed="0.00" departDelay="0.31" arrival="2523.00" arrivalLane="b11[0]_0" arrivalPos="90.93" arrivalSpeed="12.47" duration="312.00" routeLength="2879.67" waitingTime="38.00" waitingCount="4" stopTime="0.00" timeLoss="86.23" rerouteNo="0" devices="vehroute_64 tripinfo_64 fcd_64" vType="DEFAULT_VEHTYPE" speedFactor="0.94" vaporized=""/>
    <tripinfo id="65" depart="2225.00" departLane="a210_0" departPos="5.10" departSpeed="0.00" departDelay="0.01" arrival="2527.00" arrivalLane="b11[0]_0" arrivalPos="90.93" arrivalSpeed="11.02" duration="302.00" routeLength="2879.67" waitingTime="14.00" waitingCount="3" stopTime="0.00" timeLoss="61.07" rerouteNo="0" devices="vehroute_65 tripinfo_65 fcd_65" vType="DEFAULT_VEHTYPE" speedFactor="0.88" vaporized=""/>
    <tripinfo id="66" depart="2229.00" departLane="a210_0" departPos="5.10" departSpeed="0.00" departDelay="0.79" arrival="2530.00" arrivalLane="b11[0]_0" arrivalPos="90.93" arrivalSpeed="11.72" duration="301.00" routeLength="2879.67" waitingTime="12.00" waitingCount="3" stopTime="0.00" timeLoss="66.56" rerouteNo="0" devices="vehroute_66 tripinfo_66 fcd_66" vType="DEFAULT_VEHTYPE" speedFactor="0.91" vaporized=""/>
    <tripinfo id="67" depart="2232.00" departLane="a210_0" departPos="5.10" departSpeed="0.00" departDelay="1.81" arrival="2533.00" arrivalLane="b11[0]_0" arrivalPos="90.93" arrivalSpeed="12.06" duration="301.00" routeLength="2879.67" waitingTime="9.00" waitingCount="2" stopTime="0.00" timeLoss="69.34" rerouteNo="0" devices="vehroute_67 tripinfo_67 fcd_67" vType="DEFAULT_VEHTYPE" speedFactor="0.91" vaporized=""/>