<?xml version="1.0" encoding="UTF-8"?>

<!-- generated on 2025-03-21 17:59:42 by Eclipse SUMO sumo Version 1.21.0
<sumoConfiguration xmlns:xsi="http://www.w3.org/2001/XMLSchema-instance" xsi:noNamespaceSchemaLocation="http://sumo.dlr.de/xsd/sumoConfiguration.xsd">

    <input>
        <net-file value="${STATICPATH}/joined_lanes.net.xml"/>
        <route-files value="${SIMULATIONPATH}/generatedRoutes.rou.xml"/>
        <additional-files value="${STATICPATH}/detectors.add.xml,${STATICPATH}/joined_vtypes.add.xml,${STATICPATH}/joined_tls.add.xml"/>
    </input>

    <output>
        <fcd-output value="${SIMULATIONPATH}/fcd.xml"/>
        <queue-output value="${SIMULATIONPATH}/queue.xml"/>
        <summary-output value="${SIMULATIONPATH}/summary.xml"/>
        <tripinfo-output value="${SIMULATIONPATH}/tripinfos.xml"/>
        <vehroute-output value="${SIMULATIONPATH}/vehroute.xml"/>
        <save-state.prefix value="configs\state"/>
    </output>

    <processing>
        <ignore-junction-blocker value="1"/>
        <ignore-route-errors value="true"/>
        <time-to-teleport value="-1"/>
    </processing>

    <report>
        <log value="C:/Users/fabio/Desktop/sumo_log.txt"/>
        <no-step-log value="true"/>
    </report>

    <emissions>
        <phemlight-path value="configs\./PHEMlight/"/>
    </emissions>

    <traci_server>
        <remote-port value="60266"/>
    </traci_server>

</sumoConfiguration>
-->

<routes xmlns:xsi="http://www.w3.org/2001/XMLSchema-instance" xsi:noNamespaceSchemaLocation="http://sumo.dlr.de/xsd/routes_file.xsd">
    <vehicle id="0" depart="2.00" arrival="279.00">
        <route edges="a210 a43[0] a43[1] a115 a110 a185 a92 a90 am91 a88 a187 a191 a17 a71 b38[0] b38[0]a b37 b26 b26.-170 b17[0] b17[1] b11[0]"/>
    </vehicle>

    <vehicle id="1" depart="64.00" arrival="415.00">
        <route edges="a210 a43[0] a43[1] a115 a110 a185 a92 a90 am91 a88 a187 a191 a17 a71 b38[0] b38[0]a b37 b26 b26.-170 b17[0] b17[1] b11[0]"/>
    </vehicle>

    <vehicle id="2" depart="83.00" arrival="417.00">
        <route edges="a210 a43[0] a43[1] a115 a110 a185 a92 a90 am91 a88 a187 a191 a17 a71 b38[0] b38[0]a b37 b26 b26.-170 b17[0] b17[1] b11[0]"/>
    </vehicle>

    <vehicle id="3" depart="154.00" arrival="418.00">
        <route edges="a210 a43[0] a43[1] a115 a110 a185 a92 a90 am91 a88 a187 a191 a17 a71 b38[0] b38[0]a b37 b26 b26.-170 b17[0] b17[1] b11[0]"/>
    </vehicle>

    <vehicle id="4" depart="233.00" arrival="545.00">
        <route edges="a210 a43[0] a43[1] a115 a110 a185 a92 a90 am91 a88 a187 a191 a17 a71 b38[0] b38[0]a b37 b26 b26.-170 b17[0] b17[1] b11[0]"/>
    </vehicle>

    <vehicle id="5" depart="269.00" arrival="680.00">
        <route edges="a210 a43[0] a43[1] a115 a110 a185 a92 a90 am91 a88 a187 a191 a17 a71 b38[0] b38[0]a b37 b26 b26.-170 b17[0] b17[1] b11[0]"/>
    </vehicle>

    <vehicle id="6" depart="288.00" arrival="681.00">
        <route edges="a210 a43[0] a43[1] a115 a110 a185 a92 a90 am91 a88 a187 a191 a17 a71 b38[0] b38[0]a b37 b26 b26.-170 b17[0] b17[1] b11[0]"/>
    </vehicle>

    <vehicle id="7" depart="439.00" arrival="804.00">
        <route edges="a210 a43[0] a43[1] a115 a110 a185 a92 a90 am91 a88 a187 a191 a17 a71 b38[0] b38[0]a b37 b26 b26.-170 b17[0] b17[1] b11[0]"/>
    </vehicle>

    <vehicle id="8" depart="442.00" arrival="806.00">
        <route edges="a210 a43[0] a43[1] a115 a110 a185 a92 a90 am91 a88 a187 a191 a17 a71 b38[0] b38[0]a b37 b26 b26.-170 b17[0] b17[1] b11[0]"/>
    </vehicle>

    <vehicle id="9" depart="458.00" arrival="810.00">
        <route edges="a210 a43[0] a43[1] a115 a110 a185 a92 a90 am91 a88 a187 a191 a17 a71 b38[0] b38[0]a b37 b26 b26.-170 b17[0] b17[1] b11[0]"/>
    </vehicle>

    <vehicle id="10" depart="482.00" arrival="812.00">
        <route edges="a210 a43[0] a43[1] a115 a110 a185 a92 a90 am91 a88 a187 a191 a17 a71 b38[0] b38[0]a b37 b26 b26.-170 b17[0] b17[1] b11[0]"/>
    </vehicle>

    <vehicle id="11" depart="502.00" arrival="814.00">
        <route edges="a210 a43[0] a43[1] a115 a110 a185 a92 a90 am91 a88 a187 a191 a17 a71 b38[0] b38[0]a b37 b26 b26.-170 b17[0] b17[1] b11[0]"/>
    </vehicle>

    <vehicle id="12" depart="509.00" arrival="815.00">
        <route edges="a210 a43[0] a43[1] a115 a110 a185 a92 a90 am91 a88 a187 a191 a17 a71 b38[0] b38[0]a b37 b26 b26.-170 b17[0] b17[1] b11[0]"/>
    </vehicle>

    <vehicle id="13" depart="538.00" arrival="912.00">
        <route edges="a210 a43[0] a43[1] a115 a110 a185 a92 a90 am91 a88 a187 a191 a17 a71 b38[0] b38[0]a b37 b26 b26.-170 b17[0] b17[1] b11[0]"/>
    </vehicle>

    <vehicle id="14" depart="554.00" arrival="915.00">
        <route edges="a210 a43[0] a43[1] a115 a110 a185 a92 a90 am91 a88 a187 a191 a17 a71 b38[0] b38[0]a b37 b26 b26.-170 b17[0] b17[1] b11[0]"/>
    </vehicle>

    <vehicle id="15" depart="615.00" arrival="919.00">
        <route edges="a210 a43[0] a43[1] a115 a110 a185 a92 a90 am91 a88 a187 a191 a17 a71 b38[0] b38[0]a b37 b26 b26.-170 b17[0] b17[1] b11[0]"/>
    </vehicle>

    <vehicle id="16" depart="626.00" arrival="922.00">
        <route edges="a210 a43[0] a43[1] a115 a110 a185 a92 a90 am91 a88 a187 a191 a17 a71 b38[0] b38[0]a b37 b26 b26.-170 b17[0] b17[1] b11[0]"/>
    </vehicle>

    <vehicle id="17" depart="637.00" arrival="924.00">
        <route edges="a210 a43[0] a43[1] a115 a110 a185 a92 a90 am91 a88 a187 a191 a17 a71 b38[0] b38[0]a b37 b26 b26.-170 b17[0] b17[1] b11[0]"/>
    </vehicle>

    <vehicle id="18" depart="640.00" arrival="927.00">
        <route edges="a210 a43[0] a43[1] a115 a110 a185 a92 a90 am91 a88 a187 a191 a17 a71 b38[0] b38[0]a b37 b26 b26.-170 b17[0] b17[1] b11[0]"/>
    </vehicle>

    <vehicle id="19" depart="683.00" arrival="1034.00">
        <route edges="a210 a43[0] a43[1] a115 a110 a185 a92 a90 am91 a88 a187 a191 a17 a71 b38[0] b38[0]a b37 b26 b26.-170 b17[0] b17[1] b11[0]"/>
    </vehicle>

    <vehicle id="20" depart="691.00" arrival="1038.00">
        <route edges="a210 a43[0] a43[1] a115 a110 a185 a92 a90 am91 a88 a187 a191 a17 a71 b38[0] b38[0]a b37 b26 b26.-170 b17[0] b17[1] b11[0]"/>
    </vehicle>

    <vehicle id="21" depart="716.00" arrival="1040.00">
        <route edges="a210 a43[0] a43[1] a115 a110 a185 a92 a90 am91 a88 a187 a191 a17 a71 b38[0] b38[0]a b37 b26 b26.-170 b17[0] b17[1] b11[0]"/>
    </vehicle>

    <vehicle id="22" depart="763.00" arrival="1043.00">
        <route edges="a210 a43[0] a43[1] a115 a110 a185 a92 a90 am91 a88 a187 a191 a17 a71 b38[0] b38[0]a b37 b26 b26.-170 b17[0] b17[1] b11[0]"/>
    </vehicle>

    <vehicle id="23" depart="766.00" arrival="1047.00">
        <route edges="a210 a43[0] a43[1] a115 a110 a185 a92 a90 am91 a88 a187 a191 a17 a71 b38[0] b38[0]a b37 b26 b26.-170 b17[0] b17[1] b11[0]"/>
    </vehicle>

    <vehicle id="24" depart="795.00" arrival="1173.00">
        <route edges="a210 a43[0] a43[1] a115 a110 a185 a92 a90 am91 a88 a187 a191 a17 a71 b38[0] b38[0]a b37 b26 b26.-170 b17[0] b17[1] b11[0]"/>
    </vehicle>

    <vehicle id="25" depart="806.00" arrival="1176.00">
        <route edges="a210 a43[0] a43[1] a115 a110 a185 a92 a90 am91 a88 a187 a191 a17 a71 b38[0] b38[0]a b37 b26 b26.-170 b17[0] b17[1] b11[0]"/>
    </vehicle>

    <vehicle id="26" depart="825.00" arrival="1178.00">
        <route edges="a210 a43[0] a43[1] a115 a110 a185 a92 a90 am91 a88 a187 a191 a17 a71 b38[0] b38[0]a b37 b26 b26.-170 b17[0] b17[1] b11[0]"/>
    </vehicle>

    <vehicle id="27" depart="838.00" arrival="1180.00">
        <route edges="a210 a43[0] a43[1] a115 a110 a185 a92 a90 am91 a88 a187 a191 a17 a71 b38[0] b38[0]a b37 b26 b26.-170 b17[0] b17[1] b11[0]"/>
    </vehicle>

    <vehicle id="28" depart="841.00" arrival="1182.00">
        <route edges="a210 a43[0] a43[1] a115 a110 a185 a92 a90 am91 a88 a187 a191 a17 a71 b38[0] b38[0]a b37 b26 b26.-170 b17[0] b17[1] b11[0]"/>
    </vehicle>

    <vehicle id="29" depart="877.00" arrival="1185.00">
        <route edges="a210 a43[0] a43[1] a115 a110 a185 a92 a90 am91 a88 a187 a191 a17 a71 b38[0] b38[0]a b37 b26 b26.-170 b17[0] b17[1] b11[0]"/>
    </vehicle>

    <vehicle id="30" depart="895.00" arrival="1187.00">
        <route edges="a210 a43[0] a43[1] a115 a110 a185 a92 a90 am91 a88 a187 a191 a17 a71 b38[0] b38[0]a b37 b26 b26.-170 b17[0] b17[1] b11[0]"/>
    </vehicle>

    <vehicle id="31" depart="956.00" arrival="1282.00">
        <route edges="a210 a43[0] a43[1] a115 a110 a185 a92 a90 am91 a88 a187 a191 a17 a71 b38[0] b38[0]a b37 b26 b26.-170 b17[0] b17[1] b11[0]"/>
    </vehicle>

    <vehicle id="32" depart="959.00" arrival="1285.00">
        <route edges="a210 a43[0] a43[1] a115 a110 a185 a92 a90 am91 a88 a187 a191 a17 a71 b38[0] b38[0]a b37 b26 b26.-170 b17[0] b17[1] b11[0]"/>
    </vehicle>

    <vehicle id="33" depart="962.00" arrival="1287.00">
        <route edges="a210 a43[0] a43[1] a115 a110 a185 a92 a90 am91 a88 a187 a191 a17 a71 b38[0] b38[0]a b37 b26 b26.-170 b17[0] b17[1] b11[0]"/>
    </vehicle>

    <vehicle id="34" depart="1000.00" arrival="1410.00">
        <route edges="a210 a43[0] a43[1] a115 a110 a185 a92 a90 am91 a88 a187 a191 a17 a71 b38[0] b38[0]a b37 b26 b26.-170 b17[0] b17[1] b11[0]"/>
    </vehicle>

    <vehicle id="35" depart="1071.00" arrival="1412.00">
        <route edges="a210 a43[0] a43[1] a115 a110 a185 a92 a90 am91 a88 a187 a191 a17 a71 b38[0] b38[0]a b37 b26 b26.-170 b17[0] b17[1] b11[0]"/>
    </vehicle>

    <vehicle id="36" depart="1130.00" arrival="1415.00">
        <route edges="a210 a43[0] a43[1] a115 a110 a185 a92 a90 am91 a88 a187 a191 a17 a71 b38[0] b38[0]a b37 b26 b26.-170 b17[0] b17[1] b11[0]"/>
    </vehicle>

    <vehicle id="37" depart="1144.00" arrival="1417.00">
        <route edges="a210 a43[0] a43[1] a115 a110 a185 a92 a90 am91 a88 a187 a191 a17 a71 b38[0] b38[0]a b37 b26 b26.-170 b17[0] b17[1] b11[0]"/>
    </vehicle>

    <vehicle id="38" depart="1162.00" arrival="1419.00">
        <route edges="a210 a43[0] a43[1] a115 a110 a185 a92 a90 am91 a88 a187 a191 a17 a71 b38[0] b38[0]a b37 b26 b26.-170 b17[0] b17[1] b11[0]"/>
    </vehicle>

    <vehicle id="39" depart="1165.00" arrival="1540.00">
        <route edges="a210 a43[0] a43[1] a115 a110 a185 a92 a90 am91 a88 a187 a191 a17 a71 b38[0] b38[0]a b37 b26 b26.-170 b17[0] b17[1] b11[0]"/>
    </vehicle>

    <vehicle id="40" depart="1276.00" arrival="1542.00">
        <route edges="a210 a43[0] a43[1] a115 a110 a185 a92 a90 am91 a88 a187 a191 a17 a71 b38[0] b38[0]a b37 b26 b26.-170 b17[0] b17[1] b11[0]"/>
    </vehicle>

    <vehicle id="41" depart="1314.00" arrival="1660.00">
        <route edges="a210 a43[0] a43[1] a115 a110 a185 a92 a90 am91 a88 a187 a191 a17 a71 b38[0] b38[0]a b37 b26 b26.-170 b17[0] b17[1] b11[0]"/>
    </vehicle>

    <vehicle id="42" depart="1338.00" arrival="1661.00">
        <route edges="a210 a43[0] a43[1] a115 a110 a185 a92 a90 am91 a88 a187 a191 a17 a71 b38[0] b38[0]a b37 b26 b26.-170 b17[0] b17[1] b11[0]"/>
    </vehicle>

    <vehicle id="43" depart="1392.00" arrival="1664.00">
        <route edges="a210 a43[0] a43[1] a115 a110 a185 a92 a90 am91 a88 a187 a191 a17 a71 b38[0] b38[0]a b37 b26 b26.-170 b17[0] b17[1] b11[0]"/>
    </vehicle>

    <vehicle id="44" depart="1395.00" arrival="1666.00">
        <route edges="a210 a43[0] a43[1] a115 a110 a185 a92 a90 am91 a88 a187 a191 a17 a71 b38[0] b38[0]a b37 b26 b26.-170 b17[0] b17[1] b11[0]"/>
    </vehicle>

    <vehicle id="45" depart="1413.00" arrival="1669.00">
        <route edges="a210 a43[0] a43[1] a115 a110 a185 a92 a90 am91 a88 a187 a191 a17 a71 b38[0] b38[0]a b37 b26 b26.-170 b17[0] b17[1] b11[0]"/>
    </vehicle>

    <vehicle id="46" depart="1458.00" arrival="1780.00">
        <route edges="a210 a43[0] a43[1] a115 a110 a185 a92 a90 am91 a88 a187 a191 a17 a71 b38[0] b38[0]a b37 b26 b26.-170 b17[0] b17[1] b11[0]"/>
    </vehicle>

    <vehicle id="47" depart="1507.00" arrival="1910.00">
        <route edges="a210 a43[0] a43[1] a115 a110 a185 a92 a90 am91 a88 a187 a191 a17 a71 b38[0] b38[0]a b37 b26 b26.-170 b17[0] b17[1] b11[0]"/>
    </vehicle>

    <vehicle id="48" depart="1550.00" arrival="1914.00">
        <route edges="a210 a43[0] a43[1] a115 a110 a185 a92 a90 am91 a88 a187 a191 a17 a71 b38[0] b38[0]a b37 b26 b26.-170 b17[0] b17[1] b11[0]"/>
    </vehicle>

    <vehicle id="49" depart="1722.00" arrival="2160.00">
        <route edges="a210 a43[0] a43[1] a115 a110 a185 a92 a90 am91 a88 a187 a191 a17 a71 b38[0] b38[0]a b37 b26 b26.-170 b17[0] b17[1] b11[0]"/>
    </vehicle>

    <vehicle id="50" depart="1726.00" arrival="2163.00">
        <route edges="a210 a43[0] a43[1] a115 a110 a185 a92 a90 am91 a88 a187 a191 a17 a71 b38[0] b38[0]a b37 b26 b26.-170 b17[0] b17[1] b11[0]"/>
    </vehicle>

    <vehicle id="51" depart="1734.00" arrival="2164.00">
        <route edges="a210 a43[0] a43[1] a115 a110 a185 a92 a90 am91 a88 a187 a191 a17 a71 b38[0] b38[0]a b37 b26 b26.-170 b17[0] b17[1] b11[0]"/>
    </vehicle>

    <vehicle id="52" depart="1745.00" arrival="2167.00">
        <route edges="a210 a43[0] a43[1] a115 a110 a185 a92 a90 am91 a88 a187 a191 a17 a71 b38[0] b38[0]a b37 b26 b26.-170 b17[0] b17[1] b11[0]"/>
    </vehicle>

    <vehicle id="53" depart="1798.00" arrival="2169.00">
        <route edges="a210 a43[0] a43[1] a115 a110 a185 a92 a90 am91 a88 a187 a191 a17 a71 b38[0] b38[0]a b37 b26 b26.-170 b17[0] b17[1] b11[0]"/>
    </vehicle>

    <vehicle id="54" depart="1822.00" arrival="2172.00">
        <route edges="a210 a43[0] a43[1] a115 a110 a185 a92 a90 am91 a88 a187 a191 a17 a71 b38[0] b38[0]a b37 b26 b26.-170 b17[0] b17[1] b11[0]"/>
    </vehicle>

    <vehicle id="55" depart="1892.00" arrival="2272.00">
        <route edges="a210 a43[0] a43[1] a115 a110 a185 a92 a90 am91 a88 a187 a191 a17 a71 b38[0] b38[0]a b37 b26 b26.-170 b17[0] b17[1] b11[0]"/>
    </vehicle>

    <vehicle id="56" depart="1917.00" arrival="2275.00">
        <route edges="a210 a43[0] a43[1] a115 a110 a185 a92 a90 am91 a88 a187 a191 a17 a71 b38[0] b38[0]a b37 b26 b26.-170 b17[0] b17[1] b11[0]"/>
    </vehicle>

    <vehicle id="57" depart="2032.00" arrival="2388.00">
        <route edges="a210 a43[0] a43[1] a115 a110 a185 a92 a90 am91 a88 a187 a191 a17 a71 b38[0] b38[0]a b37 b26 b26.-170 b17[0] b17[1] b11[0]"/>
    </vehicle>

    <vehicle id="58" depart="2063.00" arrival="2391.00">
        <route edges="a210 a43[0] a43[1] a115 a110 a185 a92 a90 am91 a88 a187 a191 a17 a71 b38[0] b38[0]a b37 b26 b26.-170 b17[0] b17[1] b11[0]"/>
    </vehicle>

    <vehicle id="59" depart="2071.00" arrival="2394.00">
        <route edges="a210 a43[0] a43[1] a115 a110 a185 a92 a90 am91 a88 a187 a191 a17 a71 b38[0] b38[0]a b37 b26 b26.-170 b17[0] b17[1] b11[0]"/>
    </vehicle>

    <vehicle id="60" depart="2096.00" arrival="2396.00">
        <route edges="a210 a43[0] a43[1] a115 a110 a185 a92 a90 am91 a88 a187 a191 a17 a71 b38[0] b38[0]a b37 b26 b26.-170 b17[0] b17[1] b11[0]"/>
    </vehicle>

    <vehicle id="61" depart="2140.00" arrival="2398.00">
        <route edges="a210 a43[0] a43[1] a115 a110 a185 a92 a90 am91 a88 a187 a191 a17 a71 b38[0] b38[0]a b37 b26 b26.-170 b17[0] b17[1] b11[0]"/>
    </vehicle>

    <vehicle id="62" depart="2170.00" arrival="2518.00">
        <route edges="a210 a43[0] a43[1] a115 a110 a185 a92 a90 am91 a88 a187 a191 a17 a71 b38[0] b38[0]a b37 b26 b26.-170 b17[0] b17[1] b11[0]"/>
    </vehicle>

    <vehicle id="63" depart="2183.00" arrival="2520.00">
        <route edges="a210 a43[0] a43[1] a115 a110 a185 a92 a90 am91 a88 a187 a191 a17 a71 b38[0] b38[0]a b37 b26 b26.-170 b17[0] b17[1] b11[0]"/>
    </vehicle>

    <vehicle id="64" depart="2211.00" arrival="2523.00">
        <route edges="a210 a43[0] a43[1] a115 a110 a185 a92 a90 am91 a88 a187 a191 a17 a71 b38[0] b38[0]a b37 b26 b26.-170 b17[0] b17[1] b11[0]"/>
    </vehicle>

    <vehicle id="65" depart="2225.00" arrival="2527.00">
        <route edges="a210 a43[0] a43[1] a115 a110 a185 a92 a90 am91 a88 a187 a191 a17 a71 b38[0] b38[0]a b37 b26 b26.-170 b17[0] b17[1] b11[0]"/>
    </vehicle>

    <vehicle id="66" depart="2229.00" arrival="2530.00">
        <route edges="a210 a43[0] a43[1] a115 a110 a185 a92 a90 am91 a88 a187 a191 a17 a71 b38[0] b38[0]a b37 b26 b26.-170 b17[0] b17[1] b11[0]"/>
    </vehicle>

    <vehicle id="67" depart="2232.00" arrival="2533.00">
        <route edges="a210 a43[0] a43[1] a115 a110 a185 a92 a90 am91 a88 a187 a191 a17 a71 b38[0] b38[0]a b37 b26 b26.-170 b17[0] b17[1] b11[0]"/>
    </vehicle>

    <vehicle id="68" depart="2266.00" arrival="2640.00">
        <route edges="a210 a43[0] a43[1] a115 a110 a185 a92 a90 am91 a88 a187 a191 a17 a71 b38[0] b38[0]a b37 b26 b26.-170 b17[0] b17[1] b11[0]"/>
    </vehicle>

    <vehicle id="69" depart="2280.00" arrival="2642.00">
        <route edges="a210 a43[0] a43[1] a115 a110 a185 a92 a90 am91 a88 a187 a191 a17 a71 b38[0] b38[0]a b37 b26 b26.-170 b17[0] b17[1] b11[0]"/>
    </vehicle>

    <vehicle id="70" depart="2326.00" arrival="2645.00">
        <route edges="a210 a43[0] a43[1] a115 a110 a185 a92 a90 am91 a88 a187 a191 a17 a71 b38[0] b38[0]a b37 b26 b26.-170 b17[0] b17[1] b11[0]"/>
    </vehicle>

    <vehicle id="71" depart="2347.00" arrival="2647.00">
        <route edges="a210 a43[0] a43[1] a115 a110 a185 a92 a90 am91 a88 a187 a191 a17 a71 b38[0] b38[0]a b37 b26 b26.-170 b17[0] b17[1] b11[0]"/>
    </vehicle>

    <vehicle id="72" depart="2355.00" arrival="2651.00">
        <route edges="a210 a43[0] a43[1] a115 a110 a185 a92 a90 am91 a88 a187 a191 a17 a71 b38[0] b38[0]a b37 b26 b26.-170 b17[0] b17[1] b11[0]"/>
    </vehicle>

    <vehicle id="73" depart="2361.00" arrival="2652.00">
        <route edges="a210 a43[0] a43[1] a115 a110 a185 a92 a90 am91 a88 a187 a191 a17 a71 b38[0] b38[0]a b37 b26 b26.-170 b17[0] b17[1] b11[0]"/>
    </vehicle>

    <vehicle id="74" depart="2399.00" arrival="2768.00">
        <route edges="a210 a43[0] a43[1] a115 a110 a185 a92 a90 am91 a88 a187 a191 a17 a71 b38[0] b38[0]a b37 b26 b26.-170 b17[0] b17[1] b11[0]"/>
    </vehicle>

    <vehicle id="75" depart="2452.00" arrival="2770.00">
        <route edges="a210 a43[0] a43[1] a115 a110 a185 a92 a90 am91 a88 a187 a191 a17 a71 b38[0] b38[0]a b37 b26 b26.-170 b17[0] b17[1] b11[0]"/>
    </vehicle>

    <vehicle id="76" depart="2490.00" arrival="2772.00">
        <route edges="a210 a43[0] a43[1] a115 a110 a185 a92 a90 am91 a88 a187 a191 a17 a71 b38[0] b38[0]a b37 b26 b26.-170 b17[0] b17[1] b11[0]"/>
    </vehicle>

    <vehicle id="77" depart="2598.00" arrival="2888.00">
        <route edges="a210 a43[0] a43[1] a115 a110 a185 a92 a90 am91 a88 a187 a191 a17 a71 b38[0] b38[0]a b37 b26 b26.-170 b17[0] b17[1] b11[0]"/>
    </vehicle>

    <vehicle id="78" depart="2608.00" arrival="2891.00">
        <route edges="a210 a43[0] a43[1] a115 a110 a185 a92 a90 am91 a88 a187 a191 a17 a71 b38[0] b38[0]a b37 b26 b26.-170 b17[0] b17[1] b11[0]"/>
    </vehicle>

    <vehicle id="79" depart="2716.00" arrival="3006.00">
        <route edges="a210 a43[0] a43[1] a115 a110 a185 a92 a90 am91 a88 a187 a191 a17 a71 b38[0] b38[0]a b37 b26 b26.-170 b17[0] b17[1] b11[0]"/>
    </vehicle>

    <vehicle id="80" depart="2797.00" arrival="3132.00">
        <route edges="a210 a43[0] a43[1] a115 a110 a185 a92 a90 am91 a88 a187 a191 a17 a71 b38[0] b38[0]a b37 b26 b26.-170 b17[0] b17[1] b11[0]"/>
    </vehicle>

    <vehicle id="81" depart="2818.00" arrival="3135.00">
        <route edges="a210 a43[0] a43[1] a115 a110 a185 a92 a90 am91 a88 a187 a191 a17 a71 b38[0] b38[0]a b37 b26 b26.-170 b17[0] b17[1] b11[0]"/>
    </vehicle>

    <vehicle id="82" depart="2846.00" arrival="3138.00">
        <route edges="a210 a43[0] a43[1] a115 a110 a185 a92 a90 am91 a88 a187 a191 a17 a71 b38[0] b38[0]a b37 b26 b26.-170 b17[0] b17[1] b11[0]"/>
    </vehicle>

    <vehicle id="83" depart="2852.00" arrival="3140.00">
        <route edges="a210 a43[0] a43[1] a115 a110 a185 a92 a90 am91 a88 a187 a191 a17 a71 b38[0] b38[0]a b37 b26 b26.-170 b17[0] b17[1] b11[0]"/>
    </vehicle>

    <vehicle id="84" depart="2919.00" arrival="3250.00">
        <route edges="a210 a43[0] a43[1] a115 a110 a185 a92 a90 am91 a88 a187 a191 a17 a71 b38[0] b38[0]a b37 b26 b26.-170 b17[0] b17[1] b11[0]"/>
    </vehicle>

    <vehicle id="85" depart="2948.00" arrival="3253.00">
        <route edges="a210 a43[0] a43[1] a115 a110 a185 a92 a90 am91 a88 a187 a191 a17 a71 b38[0] b38[0]a b37 b26 b26.-170 b17[0] b17[1] b11[0]"/>
    </vehicle>

    <vehicle id="86" depart="2971.00" arrival="3379.00">
        <route edges="a210 a43[0] a43[1] a115 a110 a185 a92 a90 am91 a88 a187 a191 a17 a71 b38[0] b38[0]a b37 b26 b26.-170 b17[0] b17[1] b11[0]"/>
    </vehicle>

    <vehicle id="87" depart="2986.00" arrival="3382.00">
        <route edges="a210 a43[0] a43[1] a115 a110 a185 a92 a90 am91 a88 a187 a191 a17 a71 b38[0] b38[0]a b37 b26 b26.-170 b17[0] b17[1] b11[0]"/>
    </vehicle>

    <vehicle id="88" depart="3004.00" arrival="3385.00">
        <route edges="a210 a43[0] a43[1] a115 a110 a185 a92 a90 am91 a88 a187 a191 a17 a71 b38[0] b38[0]a b37 b26 b26.-170 b17[0] b17[1] b11[0]"/>
    </vehicle>

    <vehicle id="89" depart="3053.00" arrival="3387.00">
        <route edges="a210 a43[0] a43[1] a115 a110 a185 a92 a90 am91 a88 a187 a191 a17 a71 b38[0] b38[0]a b37 b26 b26.-170 b17[0] b17[1] b11[0]"/>
    </vehicle>

    <vehicle id="90" depart="3066.00" arrival="3390.00">
        <route edges="a210 a43[0] a43[1] a115 a110 a185 a92 a90 am91 a88 a187 a191 a17 a71 b38[0] b38[0]a b37 b26 b26.-170 b17[0] b17[1] b11[0]"/>
    </vehicle>

    <vehicle id="91" depart="3095.00" arrival="3510.00">
        <route edges="a210 a43[0] a43[1] a115 a110 a185 a92 a90 am91 a88 a187 a191 a17 a71 b38[0] b38[0]a b37 b26 b26.-170 b17[0] b17[1] b11[0]"/>
    </vehicle>

    <vehicle id="92" depart="3113.00" arrival="3513.00">
        <route edges="a210 a43[0] a43[1] a115 a110 a185 a92 a90 am91 a88 a187 a191 a17 a71 b38[0] b38[0]a b37 b26 b26.-170 b17[0] b17[1] b11[0]"/>
    </vehicle>

    <vehicle id="93" depart="3154.00" arrival="3515.00">
        <route edges="a210 a43[0] a43[1] a115 a110 a185 a92 a90 am91 a88 a187 a191 a17 a71 b38[0] b38[0]a b37 b26 b26.-170 b17[0] b17[1] b11[0]"/>
    </vehicle>

    <vehicle id="94" depart="3234.00" arrival="3517.00">
        <route edges="a210 a43[0] a43[1] a115 a110 a185 a92 a90 am91 a88 a187 a191 a17 a71 b38[0] b38[0]a b37 b26 b26.-170 b17[0] b17[1] b11[0]"/>
    </vehicle>

    <vehicle id="95" depart="3358.00" arrival="3626.00">
        <route edges="a210 a43[0] a43[1] a115 a110 a185 a92 a90 am91 a88 a187 a191 a17 a71 b38[0] b38[0]a b37 b26 b26.-170 b17[0] b17[1] b11[0]"/>
    </vehicle>

    <vehicle id="96" depart="3372.00" arrival="3747.00">
        <route edges="a210 a43[0] a43[1] a115 a110 a185 a92 a90 am91 a88 a187 a191 a17 a71 b38[0] b38[0]a b37 b26 b26.-170 b17[0] b17[1] b11[0]"/>
    </vehicle>

    <vehicle id="97" depart="3431.00" arrival="3751.00">
        <route edges="a210 a43[0] a43[1] a115 a110 a185 a92 a90 am91 a88 a187 a191 a17 a71 b38[0] b38[0]a b37 b26 b26.-170 b17[0] b17[1] b11[0]"/>
    </vehicle>

    <vehicle id="98" depart="3447.00" arrival="3752.00">
        <route edges="a210 a43[0] a43[1] a115 a110 a185 a92 a90 am91 a88 a187 a191 a17 a71 b38[0] b38[0]a b37 b26 b26.-170 b17[0] b17[1] b11[0]"/>
    </vehicle>

    <vehicle id="99" depart="3470.00" arrival="3754.00">
        <route edges="a210 a43[0] a43[1] a115 a110 a185 a92 a90 am91 a88 a187 a191 a17 a71 b38[0] b38[0]a b37 b26 b26.-170 b17[0] b17[1] b11[0]"/>
    </vehicle>

</routes>
