<?xml version="1.0" encoding="UTF-8"?>

<!-- generated on 2025-03-21 18:09:33 by Eclipse SUMO sumo Version 1.21.0
<sumoConfiguration xmlns:xsi="http://www.w3.org/2001/XMLSchema-instance" xsi:noNamespaceSchemaLocation="http://sumo.dlr.de/xsd/sumoConfiguration.xsd">

    <input>
        <net-file value="${STATICPATH}/joined_lanes.net.xml"/>
        <route-files value="${SIMULATIONPATH}/generatedRoutes.rou.xml"/>
        <additional-files value="${STATICPATH}/detectors.add.xml,${STATICPATH}/joined_vtypes.add.xml,${STATICPATH}/joined_tls.add.xml"/>
    </input>

    <output>
        <fcd-output value="${SIMULATIONPATH}/fcd.xml"/>
        <queue-output value="${SIMULATIONPATH}/queue.xml"/>
        <summary-output value="${SIMULATIONPATH}/summary.xml"/>
        <tripinfo-output value="${SIMULATIONPATH}/tripinfos.xml"/>
        <vehroute-output value="${SIMULATIONPATH}/vehroute.xml"/>
        <save-state.prefix value="configs\state"/>
    </output>

    <processing>
        <ignore-junction-blocker value="1"/>
        <ignore-route-errors value="true"/>
        <time-to-teleport value="-1"/>
    </processing>

    <report>
        <log value="C:/Users/fabio/Desktop/sumo_log.txt"/>
        <no-step-log value="true"/>
    </report>

    <emissions>
        <phemlight-path value="configs\./PHEMlight/"/>
    </emissions>

    <traci_server>
        <remote-port value="60317"/>
    </traci_server>

</sumoConfiguration>
-->

<tripinfos xmlns:xsi="http://www.w3.org/2001/XMLSchema-instance" xsi:noNamespaceSchemaLocation="http://sumo.dlr.de/xsd/tripinfo_file.xsd">
    <tripinfo id="0" depart="10.00" departLane="a201_0" departPos="5.10" departSpeed="0.00" departDelay="0.70" arrival="253.00" arrivalLane="b2[1][1][1]b_0" arrivalPos="325.74" arrivalSpeed="14.32" duration="243.00" routeLength="2611.01" waitingTime="39.00" waitingCount="2" stopTime="0.00" timeLoss="63.54" rerouteNo="0" devices="vehroute_0 tripinfo_0 fcd_0" vType="DEFAULT_VEHTYPE" speedFactor="1.06" vaporized=""/>
    <tripinfo id="1" depart="57.00" departLane="a210_0" departPos="5.10" departSpeed="0.00" departDelay="0.04" arrival="385.00" arrivalLane="b20+19a_0" arrivalPos="31.80" arrivalSpeed="12.28" duration="328.00" routeLength="2559.34" waitingTime="89.00" waitingCount="5" stopTime="0.00" timeLoss="128.42" rerouteNo="0" devices="vehroute_1 tripinfo_1 fcd_1" vType="DEFAULT_VEHTYPE" speedFactor="0.94" vaporized=""/>
    <tripinfo id="2" depart="211.00" departLane="a210_0" departPos="5.10" departSpeed="0.00" departDelay="0.56" arrival="538.00" arrivalLane="b3[1]b_0" arrivalPos="239.77" arrivalSpeed="13.77" duration="327.00" routeLength="3030.71" waitingTime="81.00" waitingCount="3" stopTime="0.00" timeLoss="110.27" rerouteNo="0" devices="vehroute_2 tripinfo_2 fcd_2" vType="DEFAULT_VEHTYPE" speedFactor="1.01" vaporized=""/>
    <tripinfo id="3" depart="257.00" departLane="a201_0" departPos="5.10" departSpeed="0.00" departDelay="0.39" arrival="615.00" arrivalLane="b2[1][1][1]b_0" arrivalPos="325.74" arrivalSpeed="14.15" duration="358.00" routeLength="2608.05" waitingTime="146.00" waitingCount="4" stopTime="0.00" timeLoss="183.04" rerouteNo="0" devices="vehroute_3 tripinfo_3 fcd_3" vType="DEFAULT_VEHTYPE" speedFactor="1.08" vaporized=""/>
    <tripinfo id="4" depart="314.00" departLane="a201_0" departPos="5.10" departSpeed="0.00" departDelay="0.66" arrival="616.00" arrivalLane="b2[1][1][1]b_1" arrivalPos="325.74" arrivalSpeed="13.39" duration="302.00" routeLength="2611.01" waitingTime="79.00" waitingCount="3" stopTime="0.00" timeLoss="118.35" rerouteNo="0" devices="vehroute_4 tripinfo_4 fcd_4" vType="DEFAULT_VEHTYPE" speedFactor="1.03" vaporized=""/>
    <tripinfo id="5" depart="323.00" departLane="a201_0" departPos="5.10" departSpeed="0.00" departDelay="0.35" arrival="628.00" arrivalLane="b2[1][1][1]b_0" arrivalPos="325.74" arrivalSpeed="10.87" duration="305.00" routeLength="2611.01" waitingTime="48.00" waitingCount="2" stopTime="0.00" timeLoss="76.46" rerouteNo="0" devices="vehroute_5 tripinfo_5 fcd_5" vType="DEFAULT_VEHTYPE" speedFactor="0.83" vaporized=""/>
    <tripinfo id="10" depart="537.00" departLane="a201_0" departPos="5.10" departSpeed="0.00" departDelay="0.63" arrival="740.00" arrivalLane="b2[1][1][1]b_1" arrivalPos="325.74" arrivalSpeed="14.48" duration="203.00" routeLength="2611.01" waitingTime="3.00" waitingCount="2" stopTime="0.00" timeLoss="28.71" rerouteNo="0" devices="vehroute_10 tripinfo_10 fcd_10" vType="DEFAULT_VEHTYPE" speedFactor="1.09" vaporized=""/>
    <tripinfo id="6" depart="393.00" departLane="a201_0" departPos="5.10" departSpeed="0.00" departDelay="0.89" arrival="741.00" arrivalLane="b2[1][1][1]b_0" arrivalPos="325.74" arrivalSpeed="13.39" duration="348.00" routeLength="2611.01" waitingTime="128.00" waitingCount="4" stopTime="0.00" timeLoss="166.48" rerouteNo="0" devices="vehroute_6 tripinfo_6 fcd_6" vType="DEFAULT_VEHTYPE" speedFactor="1.05" vaporized=""/>
    <tripinfo id="8" depart="444.00" departLane="a201_0" departPos="5.10" departSpeed="0.00" departDelay="0.40" arrival="745.00" arrivalLane="b2[1][1][1]b_1" arrivalPos="325.74" arrivalSpeed="12.98" duration="301.00" routeLength="2611.01" waitingTime="67.00" waitingCount="2" stopTime="0.00" timeLoss="98.13" rerouteNo="0" devices="vehroute_8 tripinfo_8 fcd_8" vType="DEFAULT_VEHTYPE" speedFactor="0.94" vaporized=""/>
    <tripinfo id="7" depart="405.00" departLane="a201_0" departPos="5.10" departSpeed="0.00" departDelay="0.70" arrival="748.00" arrivalLane="b2[1][1][1]b_0" arrivalPos="325.74" arrivalSpeed="11.78" duration="343.00" routeLength="2608.05" waitingTime="97.00" waitingCount="3" stopTime="0.00" timeLoss="128.97" rerouteNo="0" devices="vehroute_7 tripinfo_7 fcd_7" vType="DEFAULT_VEHTYPE" speedFactor="0.89" vaporized=""/>
    <tripinfo id="12" depart="551.00" departLane="a201_0" departPos="5.10" departSpeed="0.00" departDelay="0.26" arrival="865.00" arrivalLane="b2[1][1][1]b_1" arrivalPos="325.74" arrivalSpeed="14.02" duration="314.00" routeLength="2611.01" waitingTime="92.00" waitingCount="4" stopTime="0.00" timeLoss="133.25" rerouteNo="0" devices="vehroute_12 tripinfo_12 fcd_12" vType="DEFAULT_VEHTYPE" speedFactor="1.05" vaporized=""/>
    <tripinfo id="13" depart="599.00" departLane="a201_0" departPos="5.10" departSpeed="0.00" departDelay="0.21" arrival="865.00" arrivalLane="b2[1][1][1]b_0" arrivalPos="325.74" arrivalSpeed="15.51" duration="266.00" routeLength="2611.01" waitingTime="58.00" waitingCount="3" stopTime="0.00" timeLoss="96.28" rerouteNo="0" devices="vehroute_13 tripinfo_13 fcd_13" vType="DEFAULT_VEHTYPE" speedFactor="1.12" vaporized=""/>
    <tripinfo id="14" depart="630.00" departLane="a201_0" departPos="5.10" departSpeed="0.00" departDelay="0.82" arrival="868.00" arrivalLane="b2[1][1][1]b_1" arrivalPos="325.74" arrivalSpeed="12.95" duration="238.00" routeLength="2608.05" waitingTime="14.00" waitingCount="3" stopTime="0.00" timeLoss="46.17" rerouteNo="0" devices="vehroute_14 tripinfo_14 fcd_14" vType="DEFAULT_VEHTYPE" speedFactor="0.99" vaporized=""/>
    <tripinfo id="9" depart="511.00" departLane="a210_0" departPos="5.10" departSpeed="0.00" departDelay="0.61" arrival="887.00" arrivalLane="b3[1]b_0" arrivalPos="239.77" arrivalSpeed="11.11" duration="376.00" routeLength="3027.75" waitingTime="88.00" waitingCount="3" stopTime="0.00" timeLoss="120.55" rerouteNo="0" devices="vehroute_9 tripinfo_9 fcd_9" vType="DEFAULT_VEHTYPE" speedFactor="0.86" vaporized=""/>
    <tripinfo id="11" depart="539.00" departLane="a210_0" departPos="5.10" departSpeed="0.00" departDelay="0.07" arrival="899.00" arrivalLane="b4[0]_0" arrivalPos="131.31" arrivalSpeed="13.03" duration="360.00" routeLength="2943.26" waitingTime="113.00" waitingCount="3" stopTime="0.00" timeLoss="151.17" rerouteNo="0" devices="vehroute_11 tripinfo_11 fcd_11" vType="DEFAULT_VEHTYPE" speedFactor="1.03" vaporized=""/>
    <tripinfo id="20" depart="743.00" departLane="a201_0" departPos="5.10" departSpeed="0.00" departDelay="0.73" arrival="995.00" arrivalLane="b2[1][1][1]b_1" arrivalPos="325.74" arrivalSpeed="13.81" duration="252.00" routeLength="2608.05" waitingTime="40.00" waitingCount="2" stopTime="0.00" timeLoss="65.87" rerouteNo="0" devices="vehroute_20 tripinfo_20 fcd_20" vType="DEFAULT_VEHTYPE" speedFactor="1.02" vaporized=""/>
    <tripinfo id="17" depart="667.00" departLane="a201_0" departPos="5.10" departSpeed="0.00" departDelay="0.18" arrival="997.00" arrivalLane="b2[1][1][1]b_0" arrivalPos="325.74" arrivalSpeed="11.85" duration="330.00" routeLength="2611.01" waitingTime="97.00" waitingCount="3" stopTime="0.00" timeLoss="128.98" rerouteNo="0" devices="vehroute_17 tripinfo_17 fcd_17" vType="DEFAULT_VEHTYPE" speedFactor="0.94" vaporized=""/>
    <tripinfo id="16" depart="665.00" departLane="a210_0" departPos="5.10" departSpeed="0.00" departDelay="0.49" arrival="1002.00" arrivalLane="b20+19a_0" arrivalPos="31.80" arrivalSpeed="11.65" duration="337.00" routeLength="2559.34" waitingTime="93.00" waitingCount="2" stopTime="0.00" timeLoss="122.94" rerouteNo="0" devices="vehroute_16 tripinfo_16 fcd_16" vType="DEFAULT_VEHTYPE" speedFactor="0.88" vaporized=""/>
    <tripinfo id="19" depart="710.00" departLane="a210_0" departPos="5.10" departSpeed="0.00" departDelay="0.25" arrival="1004.00" arrivalLane="b20+19a_0" arrivalPos="31.80" arrivalSpeed="14.98" duration="294.00" routeLength="2559.34" waitingTime="68.00" waitingCount="5" stopTime="0.00" timeLoss="131.51" rerouteNo="0" devices="vehroute_19 tripinfo_19 fcd_19" vType="DEFAULT_VEHTYPE" speedFactor="1.16" vaporized=""/>
    <tripinfo id="15" depart="643.00" departLane="a210_0" departPos="5.10" departSpeed="0.00" departDelay="0.59" arrival="1029.00" arrivalLane="b4[0]_0" arrivalPos="131.31" arrivalSpeed="12.59" duration="386.00" routeLength="2943.26" waitingTime="114.00" waitingCount="3" stopTime="0.00" timeLoss="153.86" rerouteNo="0" devices="vehroute_15 tripinfo_15 fcd_15" vType="DEFAULT_VEHTYPE" speedFactor="0.93" vaporized=""/>
    <tripinfo id="21" depart="829.00" departLane="a201_0" departPos="5.10" departSpeed="0.00" departDelay="0.11" arrival="1103.00" arrivalLane="b2[1][1][1]b_0" arrivalPos="325.74" arrivalSpeed="14.03" duration="274.00" routeLength="2611.01" waitingTime="60.00" waitingCount="2" stopTime="0.00" timeLoss="85.95" rerouteNo="0" devices="vehroute_21 tripinfo_21 fcd_21" vType="DEFAULT_VEHTYPE" speedFactor="1.01" vaporized=""/>
    <tripinfo id="18" depart="701.00" departLane="a201_0" departPos="5.10" departSpeed="0.00" departDelay="0.59" arrival="1109.00" arrivalLane="b2[1][1][1]b_0" arrivalPos="325.74" arrivalSpeed="12.09" duration="408.00" routeLength="2611.01" waitingTime="171.00" waitingCount="3" stopTime="0.00" timeLoss="204.89" rerouteNo="0" devices="vehroute_18 tripinfo_18 fcd_18" vType="DEFAULT_VEHTYPE" speedFactor="0.94" vaporized=""/>
    <tripinfo id="23" depart="886.00" departLane="a210_0" departPos="5.10" departSpeed="0.00" departDelay="0.15" arrival="1155.00" arrivalLane="b3[1]b_0" arrivalPos="239.77" arrivalSpeed="12.03" duration="269.00" routeLength="3030.71" waitingTime="0.00" waitingCount="0" stopTime="0.00" timeLoss="22.20" rerouteNo="0" devices="vehroute_23 tripinfo_23 fcd_23" vType="DEFAULT_VEHTYPE" speedFactor="0.89" vaporized=""/>
    <tripinfo id="22" depart="847.00" departLane="a201_0" departPos="5.10" departSpeed="0.00" departDelay="0.15" arrival="1241.00" arrivalLane="b2[1][1][1]b_0" arrivalPos="325.74" arrivalSpeed="13.24" duration="394.00" routeLength="2611.01" waitingTime="151.00" waitingCount="4" stopTime="0.00" timeLoss="198.81" rerouteNo="0" devices="vehroute_22 tripinfo_22 fcd_22" vType="DEFAULT_VEHTYPE" speedFactor="0.97" vaporized=""/>
    <tripinfo id="25" depart="925.00" departLane="a201_0" departPos="5.10" departSpeed="0.00" departDelay="0.22" arrival="1243.00" arrivalLane="b2[1][1][1]b_0" arrivalPos="325.74" arrivalSpeed="11.97" duration="318.00" routeLength="2608.05" waitingTime="65.00" waitingCount="2" stopTime="0.00" timeLoss="100.44" rerouteNo="0" devices="vehroute_25 tripinfo_25 fcd_25" vType="DEFAULT_VEHTYPE" speedFactor="0.87" vaporized=""/>
    <tripinfo id="24" depart="921.00" departLane="a210_0" departPos="5.10" departSpeed="0.00" departDelay="0.68" arrival="1254.00" arrivalLane="b20+19a_0" arrivalPos="31.80" arrivalSpeed="10.84" duration="333.00" routeLength="2559.34" waitingTime="67.00" waitingCount="3" stopTime="0.00" timeLoss="105.96" rerouteNo="0" devices="vehroute_24 tripinfo_24 fcd_24" vType="DEFAULT_VEHTYPE" speedFactor="0.83" vaporized=""/>
    <tripinfo id="26" depart="954.00" departLane="a210_0" departPos="5.10" departSpeed="0.00" departDelay="0.38" arrival="1256.00" arrivalLane="b20+19a_0" arrivalPos="31.80" arrivalSpeed="12.20" duration="302.00" routeLength="2559.34" waitingTime="46.00" waitingCount="3" stopTime="0.00" timeLoss="97.41" rerouteNo="0" devices="vehroute_26 tripinfo_26 fcd_26" vType="DEFAULT_VEHTYPE" speedFactor="0.92" vaporized=""/>
    <tripinfo id="28" depart="1063.00" departLane="a201_0" departPos="5.10" departSpeed="0.00" departDelay="0.00" arrival="1346.00" arrivalLane="b2[1][1][1]b_0" arrivalPos="325.74" arrivalSpeed="15.51" duration="283.00" routeLength="2608.05" waitingTime="78.00" waitingCount="3" stopTime="0.00" timeLoss="115.07" rerouteNo="0" devices="vehroute_28 tripinfo_28 fcd_28" vType="DEFAULT_VEHTYPE" speedFactor="1.13" vaporized=""/>
    <tripinfo id="27" depart="989.00" departLane="a201_0" departPos="5.10" departSpeed="0.00" departDelay="0.66" arrival="1354.00" arrivalLane="b2[1][1][1]b_0" arrivalPos="325.74" arrivalSpeed="13.01" duration="365.00" routeLength="2611.01" waitingTime="127.00" waitingCount="4" stopTime="0.00" timeLoss="164.34" rerouteNo="0" devices="vehroute_27 tripinfo_27 fcd_27" vType="DEFAULT_VEHTYPE" speedFactor="0.95" vaporized=""/>
    <tripinfo id="29" depart="1088.00" departLane="a201_0" departPos="5.10" departSpeed="0.00" departDelay="0.58" arrival="1357.00" arrivalLane="b2[1][1][1]b_0" arrivalPos="325.74" arrivalSpeed="12.14" duration="269.00" routeLength="2611.01" waitingTime="40.00" waitingCount="1" stopTime="0.00" timeLoss="64.47" rerouteNo="0" devices="vehroute_29 tripinfo_29 fcd_29" vType="DEFAULT_VEHTYPE" speedFactor="0.93" vaporized=""/>
    <tripinfo id="30" depart="1125.00" departLane="a210_0" departPos="5.10" departSpeed="0.00" departDelay="0.82" arrival="1360.00" arrivalLane="b20+19a_0" arrivalPos="31.80" arrivalSpeed="15.46" duration="235.00" routeLength="2559.34" waitingTime="36.00" waitingCount="4" stopTime="0.00" timeLoss="76.22" rerouteNo="0" devices="vehroute_30 tripinfo_30 fcd_30" vType="DEFAULT_VEHTYPE" speedFactor="1.18" vaporized=""/>
    <tripinfo id="33" depart="1237.00" departLane="a201_0" departPos="5.10" departSpeed="0.00" departDelay="0.18" arrival="1462.00" arrivalLane="b2[1][1][1]b_0" arrivalPos="325.74" arrivalSpeed="15.05" duration="225.00" routeLength="2611.01" waitingTime="32.00" waitingCount="1" stopTime="0.00" timeLoss="62.94" rerouteNo="0" devices="vehroute_33 tripinfo_33 fcd_33" vType="DEFAULT_VEHTYPE" speedFactor="1.17" vaporized=""/>
    <tripinfo id="31" depart="1215.00" departLane="a201_0" departPos="5.10" departSpeed="0.00" departDelay="0.98" arrival="1464.00" arrivalLane="b2[1][1][1]b_0" arrivalPos="325.74" arrivalSpeed="15.49" duration="249.00" routeLength="2611.01" waitingTime="51.00" waitingCount="3" stopTime="0.00" timeLoss="84.74" rerouteNo="0" devices="vehroute_31 tripinfo_31 fcd_31" vType="DEFAULT_VEHTYPE" speedFactor="1.15" vaporized=""/>
    <tripinfo id="32" depart="1228.00" departLane="a201_0" departPos="5.10" departSpeed="0.00" departDelay="0.08" arrival="1474.00" arrivalLane="b2[1][1][1]b_0" arrivalPos="325.74" arrivalSpeed="12.92" duration="246.00" routeLength="2611.01" waitingTime="33.00" waitingCount="1" stopTime="0.00" timeLoss="56.91" rerouteNo="0" devices="vehroute_32 tripinfo_32 fcd_32" vType="DEFAULT_VEHTYPE" speedFactor="1.01" vaporized=""/>
    <tripinfo id="37" depart="1369.00" departLane="a201_0" departPos="5.10" departSpeed="0.00" departDelay="0.73" arrival="1600.00" arrivalLane="b2[1][1][1]b_0" arrivalPos="325.74" arrivalSpeed="15.28" duration="231.00" routeLength="2611.01" waitingTime="30.00" waitingCount="2" stopTime="0.00" timeLoss="70.45" rerouteNo="0" devices="vehroute_37 tripinfo_37 fcd_37" vType="DEFAULT_VEHTYPE" speedFactor="1.18" vaporized=""/>
    <tripinfo id="34" depart="1299.00" departLane="a201_0" departPos="5.10" departSpeed="0.00" departDelay="0.22" arrival="1605.00" arrivalLane="b2[1][1][1]b_0" arrivalPos="325.74" arrivalSpeed="13.67" duration="306.00" routeLength="2608.05" waitingTime="77.00" waitingCount="4" stopTime="0.00" timeLoss="115.35" rerouteNo="0" devices="vehroute_34 tripinfo_34 fcd_34" vType="DEFAULT_VEHTYPE" speedFactor="0.99" vaporized=""/>
    <tripinfo id="36" depart="1345.00" departLane="a201_0" departPos="5.10" departSpeed="0.00" departDelay="0.37" arrival="1607.00" arrivalLane="b2[1][1][1]b_0" arrivalPos="325.74" arrivalSpeed="12.46" duration="262.00" routeLength="2611.01" waitingTime="32.00" waitingCount="3" stopTime="0.00" timeLoss="66.19" rerouteNo="0" devices="vehroute_36 tripinfo_36 fcd_36" vType="DEFAULT_VEHTYPE" speedFactor="0.97" vaporized=""/>
    <tripinfo id="35" depart="1322.00" departLane="a210_0" departPos="5.10" departSpeed="0.00" departDelay="0.96" arrival="1646.00" arrivalLane="b4[0]_0" arrivalPos="131.31" arrivalSpeed="13.12" duration="324.00" routeLength="2943.26" waitingTime="69.00" waitingCount="3" stopTime="0.00" timeLoss="113.71" rerouteNo="0" devices="vehroute_35 tripinfo_35 fcd_35" vType="DEFAULT_VEHTYPE" speedFactor="1.02" vaporized=""/>
    <tripinfo id="38" depart="1420.00" departLane="a210_0" departPos="5.10" departSpeed="0.00" departDelay="0.28" arrival="1732.00" arrivalLane="b20+19a_0" arrivalPos="31.80" arrivalSpeed="14.51" duration="312.00" routeLength="2559.34" waitingTime="104.00" waitingCount="4" stopTime="0.00" timeLoss="141.79" rerouteNo="0" devices="vehroute_38 tripinfo_38 fcd_38" vType="DEFAULT_VEHTYPE" speedFactor="1.10" vaporized=""/>
    <tripinfo id="42" depart="1530.00" departLane="a201_0" departPos="5.10" departSpeed="0.00" departDelay="1.70" arrival="1734.00" arrivalLane="b2[1][1][1]b_0" arrivalPos="325.74" arrivalSpeed="14.11" duration="204.00" routeLength="2608.05" waitingTime="6.00" waitingCount="1" stopTime="0.00" timeLoss="29.93" rerouteNo="0" devices="vehroute_42 tripinfo_42 fcd_42" vType="DEFAULT_VEHTYPE" speedFactor="1.09" vaporized=""/>
    <tripinfo id="39" depart="1440.00" departLane="a210_0" departPos="5.10" departSpeed="0.00" departDelay="0.34" arrival="1739.00" arrivalLane="b20+19a_0" arrivalPos="31.80" arrivalSpeed="12.09" duration="299.00" routeLength="2559.34" waitingTime="62.00" waitingCount="2" stopTime="0.00" timeLoss="89.37" rerouteNo="0" devices="vehroute_39 tripinfo_39 fcd_39" vType="DEFAULT_VEHTYPE" speedFactor="0.90" vaporized=""/>
    <tripinfo id="40" depart="1445.00" departLane="a210_0" departPos="5.10" departSpeed="0.00" departDelay="0.72" arrival="1770.00" arrivalLane="b4[0]_0" arrivalPos="131.31" arrivalSpeed="13.11" duration="325.00" routeLength="2943.26" waitingTime="59.00" waitingCount="2" stopTime="0.00" timeLoss="115.85" rerouteNo="0" devices="vehroute_40 tripinfo_40 fcd_40" vType="DEFAULT_VEHTYPE" speedFactor="1.03" vaporized=""/>
    <tripinfo id="43" depart="1552.00" departLane="a201_0" departPos="5.10" departSpeed="0.00" departDelay="0.90" arrival="1840.00" arrivalLane="b2[1][1][1]b_0" arrivalPos="325.74" arrivalSpeed="14.11" duration="288.00" routeLength="2611.01" waitingTime="76.00" waitingCount="2" stopTime="0.00" timeLoss="104.19" rerouteNo="0" devices="vehroute_43 tripinfo_43 fcd_43" vType="DEFAULT_VEHTYPE" speedFactor="1.04" vaporized=""/>
    <tripinfo id="41" depart="1527.00" departLane="a201_0" departPos="5.10" departSpeed="0.00" departDelay="0.80" arrival="1845.00" arrivalLane="b2[1][1][1]b_0" arrivalPos="325.74" arrivalSpeed="12.94" duration="318.00" routeLength="2611.01" waitingTime="93.00" waitingCount="2" stopTime="0.00" timeLoss="119.45" rerouteNo="0" devices="vehroute_41 tripinfo_41 fcd_41" vType="DEFAULT_VEHTYPE" speedFactor="0.96" vaporized=""/>
    <tripinfo id="45" depart="1605.00" departLane="a201_0" departPos="5.10" departSpeed="0.00" departDelay="0.15" arrival="1966.00" arrivalLane="b2[1][1][1]b_0" arrivalPos="325.74" arrivalSpeed="14.46" duration="361.00" routeLength="2608.05" waitingTime="150.00" waitingCount="3" stopTime="0.00" timeLoss="186.92" rerouteNo="0" devices="vehroute_45 tripinfo_45 fcd_45" vType="DEFAULT_VEHTYPE" speedFactor="1.09" vaporized=""/>
    <tripinfo id="44" depart="1594.00" departLane="a201_0" departPos="5.10" departSpeed="0.00" departDelay="0.22" arrival="1968.00" arrivalLane="b2[1][1][1]b_0" arrivalPos="325.74" arrivalSpeed="13.66" duration="374.00" routeLength="2611.01" waitingTime="156.00" waitingCount="3" stopTime="0.00" timeLoss="192.10" rerouteNo="0" devices="vehroute_44 tripinfo_44 fcd_44" vType="DEFAULT_VEHTYPE" speedFactor="1.04" vaporized=""/>
    <tripinfo id="46" depart="1703.00" departLane="a201_0" departPos="5.10" departSpeed="0.00" departDelay="0.59" arrival="1971.00" arrivalLane="b2[1][1][1]b_0" arrivalPos="325.74" arrivalSpeed="13.04" duration="268.00" routeLength="2611.01" waitingTime="40.00" waitingCount="3" stopTime="0.00" timeLoss="77.27" rerouteNo="0" devices="vehroute_46 tripinfo_46 fcd_46" vType="DEFAULT_VEHTYPE" speedFactor="1.00" vaporized=""/>
    <tripinfo id="47" depart="1717.00" departLane="a210_0" departPos="5.10" departSpeed="0.00" departDelay="0.90" arrival="2024.00" arrivalLane="b4[0]_0" arrivalPos="131.31" arrivalSpeed="11.72" duration="307.00" routeLength="2943.26" waitingTime="30.00" waitingCount="3" stopTime="0.00" timeLoss="67.31" rerouteNo="0" devices="vehroute_47 tripinfo_47 fcd_47" vType="DEFAULT_VEHTYPE" speedFactor="0.90" vaporized=""/>
    <tripinfo id="51" depart="1881.00" departLane="a201_0" departPos="5.10" departSpeed="0.00" departDelay="0.07" arrival="2100.00" arrivalLane="b2[1][1][1]b_1" arrivalPos="325.74" arrivalSpeed="16.04" duration="219.00" routeLength="2608.05" waitingTime="31.00" waitingCount="1" stopTime="0.00" timeLoss="56.37" rerouteNo="0" devices="vehroute_51 tripinfo_51 fcd_51" vType="DEFAULT_VEHTYPE" speedFactor="1.17" vaporized=""/>
    <tripinfo id="48" depart="1726.00" departLane="a201_0" departPos="5.10" departSpeed="0.00" departDelay="0.94" arrival="2109.00" arrivalLane="b2[1][1][1]b_0" arrivalPos="325.74" arrivalSpeed="11.61" duration="383.00" routeLength="2611.01" waitingTime="132.00" waitingCount="3" stopTime="0.00" timeLoss="165.67" rerouteNo="0" devices="vehroute_48 tripinfo_48 fcd_48" vType="DEFAULT_VEHTYPE" speedFactor="0.88" vaporized=""/>
    <tripinfo id="53" depart="1896.00" departLane="a201_0" departPos="5.10" departSpeed="0.00" departDelay="0.60" arrival="2227.00" arrivalLane="b2[1][1][1]b_0" arrivalPos="325.74" arrivalSpeed="14.70" duration="331.00" routeLength="2611.01" waitingTime="122.00" waitingCount="4" stopTime="0.00" timeLoss="158.08" rerouteNo="0" devices="vehroute_53 tripinfo_53 fcd_53" vType="DEFAULT_VEHTYPE" speedFactor="1.10" vaporized=""/>
    <tripinfo id="54" depart="1899.00" departLane="a201_0" departPos="5.10" departSpeed="0.00" departDelay="3.15" arrival="2230.00" arrivalLane="b2[1][1][1]b_1" arrivalPos="325.74" arrivalSpeed="13.39" duration="331.00" routeLength="2608.05" waitingTime="104.00" waitingCount="4" stopTime="0.00" timeLoss="142.39" rerouteNo="0" devices="vehroute_54 tripinfo_54 fcd_54" vType="DEFAULT_VEHTYPE" speedFactor="1.00" vaporized=""/>
    <tripinfo id="52" depart="1884.00" departLane="a210_0" departPos="5.10" departSpeed="0.00" departDelay="0.89" arrival="2236.00" arrivalLane="b20+19a_0" arrivalPos="31.80" arrivalSpeed="12.94" duration="352.00" routeLength="2559.34" waitingTime="93.00" waitingCount="4" stopTime="0.00" timeLoss="167.03" rerouteNo="0" devices="vehroute_52 tripinfo_52 fcd_52" vType="DEFAULT_VEHTYPE" speedFactor="1.02" vaporized=""/>
    <tripinfo id="49" depart="1855.00" departLane="a201_0" departPos="5.10" departSpeed="0.00" departDelay="0.37" arrival="2237.00" arrivalLane="b2[1][1][1]b_0" arrivalPos="325.74" arrivalSpeed="11.44" duration="382.00" routeLength="2611.01" waitingTime="122.00" waitingCount="4" stopTime="0.00" timeLoss="158.15" rerouteNo="0" devices="vehroute_49 tripinfo_49 fcd_49" vType="DEFAULT_VEHTYPE" speedFactor="0.85" vaporized=""/>
    <tripinfo id="56" depart="1928.00" departLane="a210_0" departPos="5.10" departSpeed="0.00" departDelay="0.71" arrival="2243.00" arrivalLane="b20+19a_0" arrivalPos="31.80" arrivalSpeed="11.92" duration="315.00" routeLength="2559.34" waitingTime="58.00" waitingCount="2" stopTime="0.00" timeLoss="106.54" rerouteNo="0" devices="vehroute_56 tripinfo_56 fcd_56" vType="DEFAULT_VEHTYPE" speedFactor="0.90" vaporized=""/>
    <tripinfo id="58" depart="2004.00" departLane="a210_0" departPos="5.10" departSpeed="0.00" departDelay="0.11" arrival="2245.00" arrivalLane="b20+19a_0" arrivalPos="31.80" arrivalSpeed="13.82" duration="241.00" routeLength="2559.34" waitingTime="12.00" waitingCount="1" stopTime="0.00" timeLoss="57.69" rerouteNo="0" devices="vehroute_58 tripinfo_58 fcd_58" vType="DEFAULT_VEHTYPE" speedFactor="1.02" vaporized=""/>
    <tripinfo id="55" depart="1917.00" departLane="a210_0" departPos="5.10" departSpeed="0.00" departDelay="0.86" arrival="2274.00" arrivalLane="b4[0]_1" arrivalPos="131.31" arrivalSpeed="13.76" duration="357.00" routeLength="2930.71" waitingTime="74.00" waitingCount="3" stopTime="0.00" timeLoss="141.72" rerouteNo="0" devices="vehroute_55 tripinfo_55 fcd_55" vType="DEFAULT_VEHTYPE" speedFactor="1.00" vaporized=""/>
    <tripinfo id="50" depart="1877.00" departLane="a210_0" departPos="5.10" departSpeed="0.00" departDelay="0.56" arrival="2275.00" arrivalLane="b4[0]_0" arrivalPos="131.31" arrivalSpeed="11.48" duration="398.00" routeLength="2943.26" waitingTime="96.00" waitingCount="5" stopTime="0.00" timeLoss="145.57" rerouteNo="0" devices="vehroute_50 tripinfo_50 fcd_50" vType="DEFAULT_VEHTYPE" speedFactor="0.85" vaporized=""/>
    <tripinfo id="57" depart="1978.00" departLane="a210_0" departPos="5.10" departSpeed="0.00" departDelay="0.11" arrival="2277.00" arrivalLane="b4[0]_0" arrivalPos="131.31" arrivalSpeed="14.85" duration="299.00" routeLength="2943.26" waitingTime="37.00" waitingCount="2" stopTime="0.00" timeLoss="110.27" rerouteNo="0" devices="vehroute_57 tripinfo_57 fcd_57" vType="DEFAULT_VEHTYPE" speedFactor="1.14" vaporized=""/>
    <tripinfo id="60" depart="2137.00" departLane="a201_0" departPos="5.10" departSpeed="0.00" departDelay="0.26" arrival="2330.00" arrivalLane="b2[1][1][1]b_0" arrivalPos="325.74" arrivalSpeed="14.24" duration="193.00" routeLength="2611.01" waitingTime="0.00" waitingCount="0" stopTime="0.00" timeLoss="17.90" rerouteNo="0" devices="vehroute_60 tripinfo_60 fcd_60" vType="DEFAULT_VEHTYPE" speedFactor="1.08" vaporized=""/>
    <tripinfo id="59" depart="2092.00" departLane="a201_0" departPos="5.10" departSpeed="0.00" departDelay="0.64" arrival="2336.00" arrivalLane="b2[1][1][1]b_0" arrivalPos="325.74" arrivalSpeed="12.39" duration="244.00" routeLength="2608.05" waitingTime="18.00" waitingCount="3" stopTime="0.00" timeLoss="48.65" rerouteNo="0" devices="vehroute_59 tripinfo_59 fcd_59" vType="DEFAULT_VEHTYPE" speedFactor="0.97" vaporized=""/>
    <tripinfo id="62" depart="2150.00" departLane="a201_0" departPos="5.10" departSpeed="0.00" departDelay="0.63" arrival="2468.00" arrivalLane="b2[1][1][1]b_0" arrivalPos="325.74" arrivalSpeed="13.85" duration="318.00" routeLength="2611.01" waitingTime="100.00" waitingCount="3" stopTime="0.00" timeLoss="130.64" rerouteNo="0" devices="vehroute_62 tripinfo_62 fcd_62" vType="DEFAULT_VEHTYPE" speedFactor="1.02" vaporized=""/>
    <tripinfo id="63" depart="2172.00" departLane="a201_0" departPos="5.10" departSpeed="0.00" departDelay="0.41" arrival="2469.00" arrivalLane="b2[1][1][1]b_0" arrivalPos="325.74" arrivalSpeed="12.74" duration="297.00" routeLength="2608.05" waitingTime="62.00" waitingCount="4" stopTime="0.00" timeLoss="104.29" rerouteNo="0" devices="vehroute_63 tripinfo_63 fcd_63" vType="DEFAULT_VEHTYPE" speedFactor="0.99" vaporized=""/>
    <tripinfo id="61" depart="2145.00" departLane="a210_0" departPos="5.10" departSpeed="0.00" departDelay="0.30" arrival="2500.00" arrivalLane="b4[0]_0" arrivalPos="131.31" arrivalSpeed="15.48" duration="355.00" routeLength="2943.26" waitingTime="118.00" waitingCount="4" stopTime="0.00" timeLoss="162.17" rerouteNo="0" devices="vehroute_61 tripinfo_61 fcd_61" vType="DEFAULT_VEHTYPE" speedFactor="1.12" vaporized=""/>
    <tripinfo id="64" depart="2223.00" departLane="a210_0" departPos="5.10" departSpeed="0.00" departDelay="0.53" arrival="2510.00" arrivalLane="b4[0]_0" arrivalPos="131.31" arrivalSpeed="12.13" duration="287.00" routeLength="2943.26" waitingTime="15.00" waitingCount="2" stopTime="0.00" timeLoss="57.84" rerouteNo="0" devices="vehroute_64 tripinfo_64 fcd_64" vType="DEFAULT_VEHTYPE" speedFactor="0.94" vaporized=""/>
    <tripinfo id="70" depart="2357.00" departLane="a201_0" departPos="5.10" departSpeed="0.00" departDelay="0.10" arrival="2601.00" arrivalLane="b2[1][1][1]b_0" arrivalPos="325.74" arrivalSpeed="14.10" duration="244.00" routeLength="2611.01" waitingTime="27.00" waitingCount="3" stopTime="0.00" timeLoss="58.89" rerouteNo="0" devices="vehroute_70 tripinfo_70 fcd_70" vType="DEFAULT_VEHTYPE" speedFactor="1.02" vaporized=""/>
    <tripinfo id="65" depart="2276.00" departLane="a210_0" departPos="5.10" departSpeed="0.00" departDelay="0.74" arrival="2640.00" arrivalLane="b4[0]_0" arrivalPos="131.31" arrivalSpeed="11.41" duration="364.00" routeLength="2943.26" waitingTime="76.00" waitingCount="3" stopTime="0.00" timeLoss="120.47" rerouteNo="0" devices="vehroute_65 tripinfo_65 fcd_65" vType="DEFAULT_VEHTYPE" speedFactor="0.88" vaporized=""/>