<?xml version="1.0" encoding="UTF-8"?>

<!-- generated on 2025-03-21 18:09:33 by Eclipse SUMO sumo Version 1.21.0
<sumoConfiguration xmlns:xsi="http://www.w3.org/2001/XMLSchema-instance" xsi:noNamespaceSchemaLocation="http://sumo.dlr.de/xsd/sumoConfiguration.xsd">

    <input>
        <net-file value="${STATICPATH}/joined_lanes.net.xml"/>
        <route-files value="${SIMULATIONPATH}/generatedRoutes.rou.xml"/>
        <additional-files value="${STATICPATH}/detectors.add.xml,${STATICPATH}/joined_vtypes.add.xml,${STATICPATH}/joined_tls.add.xml"/>
    </input>

    <output>
        <fcd-output value="${SIMULATIONPATH}/fcd.xml"/>
        <queue-output value="${SIMULATIONPATH}/queue.xml"/>
        <summary-output value="${SIMULATIONPATH}/summary.xml"/>
        <tripinfo-output value="${SIMULATIONPATH}/tripinfos.xml"/>
        <vehroute-output value="${SIMULATIONPATH}/vehroute.xml"/>
        <save-state.prefix value="configs\state"/>
    </output>

    <processing>
        <ignore-junction-blocker value="1"/>
        <ignore-route-errors value="true"/>
        <time-to-teleport value="-1"/>
    </processing>

    <report>
        <log value="C:/Users/fabio/Desktop/sumo_log.txt"/>
        <no-step-log value="true"/>
    </report>

    <emissions>
        <phemlight-path value="configs\./PHEMlight/"/>
    </emissions>

    <traci_server>
        <remote-port value="60317"/>
    </traci_server>

</sumoConfiguration>
-->

<routes xmlns:xsi="http://www.w3.org/2001/XMLSchema-instance" xsi:noNamespaceSchemaLocation="http://sumo.dlr.de/xsd/routes_file.xsd">
    <vehicle id="0" depart="10.00" arrival="253.00">
        <route edges="a201 a201c a204a[0] a124 b12 b50[0] b50[1] b50[1]a a181 a18 a17 a71 b2[0] b2[1][0] b2[1][1][0] b2[1][1][1] b2[1][1][1]b"/>
    </vehicle>

    <vehicle id="1" depart="57.00" arrival="385.00">
        <route edges="a210 a43[0] a43[1] a115 a110 a185 a92 a90 am91 a88 a187 a191 a17 a71 b38[0] b38[0]a b37 b26 b26.-170 b18 b20+19a"/>
    </vehicle>

    <vehicle id="2" depart="211.00" arrival="538.00">
        <route edges="a210 a43[0] a43[1] a201 a201c a204a[0] a124 b12 b56[0] b56[1][0] b56[1][1] b5[1][0]+66 b5[1][1][1] b8 b3[1] b3[1]b"/>
    </vehicle>

    <vehicle id="3" depart="257.00" arrival="615.00">
        <route edges="a201 a201c a204a[0] a124 b12 b50[0] b50[1] b50[1]a a181 a18 a17 a71 b2[0] b2[1][0] b2[1][1][0] b2[1][1][1] b2[1][1][1]b"/>
    </vehicle>

    <vehicle id="4" depart="314.00" arrival="616.00">
        <route edges="a201 a201c a204a[0] a124 b12 b50[0] b50[1] b50[1]a a181 a18 a17 a71 b2[0] b2[1][0] b2[1][1][0] b2[1][1][1] b2[1][1][1]b"/>
    </vehicle>

    <vehicle id="5" depart="323.00" arrival="628.00">
        <route edges="a201 a201c a204a[0] a124 b12 b50[0] b50[1] b50[1]a a181 a18 a17 a71 b2[0] b2[1][0] b2[1][1][0] b2[1][1][1] b2[1][1][1]b"/>
    </vehicle>

    <vehicle id="10" depart="537.00" arrival="740.00">
        <route edges="a201 a201c a204a[0] a124 b12 b50[0] b50[1] b50[1]a a181 a18 a17 a71 b2[0] b2[1][0] b2[1][1][0] b2[1][1][1] b2[1][1][1]b"/>
    </vehicle>

    <vehicle id="6" depart="393.00" arrival="741.00">
        <route edges="a201 a201c a204a[0] a124 b12 b50[0] b50[1] b50[1]a a181 a18 a17 a71 b2[0] b2[1][0] b2[1][1][0] b2[1][1][1] b2[1][1][1]b"/>
    </vehicle>

    <vehicle id="8" depart="444.00" arrival="745.00">
        <route edges="a201 a201c a204a[0] a124 b12 b50[0] b50[1] b50[1]a a181 a18 a17 a71 b2[0] b2[1][0] b2[1][1][0] b2[1][1][1] b2[1][1][1]b"/>
    </vehicle>

    <vehicle id="7" depart="405.00" arrival="748.00">
        <route edges="a201 a201c a204a[0] a124 b12 b50[0] b50[1] b50[1]a a181 a18 a17 a71 b2[0] b2[1][0] b2[1][1][0] b2[1][1][1] b2[1][1][1]b"/>
    </vehicle>

    <vehicle id="12" depart="551.00" arrival="865.00">
        <route edges="a201 a201c a204a[0] a124 b12 b50[0] b50[1] b50[1]a a181 a18 a17 a71 b2[0] b2[1][0] b2[1][1][0] b2[1][1][1] b2[1][1][1]b"/>
    </vehicle>

    <vehicle id="13" depart="599.00" arrival="865.00">
        <route edges="a201 a201c a204a[0] a124 b12 b50[0] b50[1] b50[1]a a181 a18 a17 a71 b2[0] b2[1][0] b2[1][1][0] b2[1][1][1] b2[1][1][1]b"/>
    </vehicle>

    <vehicle id="14" depart="630.00" arrival="868.00">
        <route edges="a201 a201c a204a[0] a124 b12 b50[0] b50[1] b50[1]a a181 a18 a17 a71 b2[0] b2[1][0] b2[1][1][0] b2[1][1][1] b2[1][1][1]b"/>
    </vehicle>

    <vehicle id="9" depart="511.00" arrival="887.00">
        <route edges="a210 a43[0] a43[1] a201 a201c a204a[0] a124 b12 b56[0] b56[1][0] b56[1][1] b5[1][0]+66 b5[1][1][1] b8 b3[1] b3[1]b"/>
    </vehicle>

    <vehicle id="11" depart="539.00" arrival="899.00">
        <route edges="a210 a43[0] a43[1] a115 a110 a185 a92 a90 am91 a88 a187 a191 a17 a71 b38[0] b38[0]a b37 b26 b26.-170 b15 b13[1] b4[0]"/>
    </vehicle>

    <vehicle id="20" depart="743.00" arrival="995.00">
        <route edges="a201 a201c a204a[0] a124 b12 b50[0] b50[1] b50[1]a a181 a18 a17 a71 b2[0] b2[1][0] b2[1][1][0] b2[1][1][1] b2[1][1][1]b"/>
    </vehicle>

    <vehicle id="17" depart="667.00" arrival="997.00">
        <route edges="a201 a201c a204a[0] a124 b12 b50[0] b50[1] b50[1]a a181 a18 a17 a71 b2[0] b2[1][0] b2[1][1][0] b2[1][1][1] b2[1][1][1]b"/>
    </vehicle>

    <vehicle id="16" depart="665.00" arrival="1002.00">
        <route edges="a210 a43[0] a43[1] a115 a110 a185 a92 a90 am91 a88 a187 a191 a17 a71 b38[0] b38[0]a b37 b26 b26.-170 b18 b20+19a"/>
    </vehicle>

    <vehicle id="19" depart="710.00" arrival="1004.00">
        <route edges="a210 a43[0] a43[1] a115 a110 a185 a92 a90 am91 a88 a187 a191 a17 a71 b38[0] b38[0]a b37 b26 b26.-170 b18 b20+19a"/>
    </vehicle>

    <vehicle id="15" depart="643.00" arrival="1029.00">
        <route edges="a210 a43[0] a43[1] a115 a110 a185 a92 a90 am91 a88 a187 a191 a17 a71 b38[0] b38[0]a b37 b26 b26.-170 b15 b13[1] b4[0]"/>
    </vehicle>

    <vehicle id="21" depart="829.00" arrival="1103.00">
        <route edges="a201 a201c a204a[0] a124 b12 b50[0] b50[1] b50[1]a a181 a18 a17 a71 b2[0] b2[1][0] b2[1][1][0] b2[1][1][1] b2[1][1][1]b"/>
    </vehicle>

    <vehicle id="18" depart="701.00" arrival="1109.00">
        <route edges="a201 a201c a204a[0] a124 b12 b50[0] b50[1] b50[1]a a181 a18 a17 a71 b2[0] b2[1][0] b2[1][1][0] b2[1][1][1] b2[1][1][1]b"/>
    </vehicle>

    <vehicle id="23" depart="886.00" arrival="1155.00">
        <route edges="a210 a43[0] a43[1] a201 a201c a204a[0] a124 b12 b56[0] b56[1][0] b56[1][1] b5[1][0]+66 b5[1][1][1] b8 b3[1] b3[1]b"/>
    </vehicle>

    <vehicle id="22" depart="847.00" arrival="1241.00">
        <route edges="a201 a201c a204a[0] a124 b12 b50[0] b50[1] b50[1]a a181 a18 a17 a71 b2[0] b2[1][0] b2[1][1][0] b2[1][1][1] b2[1][1][1]b"/>
    </vehicle>

    <vehicle id="25" depart="925.00" arrival="1243.00">
        <route edges="a201 a201c a204a[0] a124 b12 b50[0] b50[1] b50[1]a a181 a18 a17 a71 b2[0] b2[1][0] b2[1][1][0] b2[1][1][1] b2[1][1][1]b"/>
    </vehicle>

    <vehicle id="24" depart="921.00" arrival="1254.00">
        <route edges="a210 a43[0] a43[1] a115 a110 a185 a92 a90 am91 a88 a187 a191 a17 a71 b38[0] b38[0]a b37 b26 b26.-170 b18 b20+19a"/>
    </vehicle>

    <vehicle id="26" depart="954.00" arrival="1256.00">
        <route edges="a210 a43[0] a43[1] a115 a110 a185 a92 a90 am91 a88 a187 a191 a17 a71 b38[0] b38[0]a b37 b26 b26.-170 b18 b20+19a"/>
    </vehicle>

    <vehicle id="28" depart="1063.00" arrival="1346.00">
        <route edges="a201 a201c a204a[0] a124 b12 b50[0] b50[1] b50[1]a a181 a18 a17 a71 b2[0] b2[1][0] b2[1][1][0] b2[1][1][1] b2[1][1][1]b"/>
    </vehicle>

    <vehicle id="27" depart="989.00" arrival="1354.00">
        <route edges="a201 a201c a204a[0] a124 b12 b50[0] b50[1] b50[1]a a181 a18 a17 a71 b2[0] b2[1][0] b2[1][1][0] b2[1][1][1] b2[1][1][1]b"/>
    </vehicle>

    <vehicle id="29" depart="1088.00" arrival="1357.00">
        <route edges="a201 a201c a204a[0] a124 b12 b50[0] b50[1] b50[1]a a181 a18 a17 a71 b2[0] b2[1][0] b2[1][1][0] b2[1][1][1] b2[1][1][1]b"/>
    </vehicle>

    <vehicle id="30" depart="1125.00" arrival="1360.00">
        <route edges="a210 a43[0] a43[1] a115 a110 a185 a92 a90 am91 a88 a187 a191 a17 a71 b38[0] b38[0]a b37 b26 b26.-170 b18 b20+19a"/>
    </vehicle>

    <vehicle id="33" depart="1237.00" arrival="1462.00">
        <route edges="a201 a201c a204a[0] a124 b12 b50[0] b50[1] b50[1]a a181 a18 a17 a71 b2[0] b2[1][0] b2[1][1][0] b2[1][1][1] b2[1][1][1]b"/>
    </vehicle>

    <vehicle id="31" depart="1215.00" arrival="1464.00">
        <route edges="a201 a201c a204a[0] a124 b12 b50[0] b50[1] b50[1]a a181 a18 a17 a71 b2[0] b2[1][0] b2[1][1][0] b2[1][1][1] b2[1][1][1]b"/>
    </vehicle>

    <vehicle id="32" depart="1228.00" arrival="1474.00">
        <route edges="a201 a201c a204a[0] a124 b12 b50[0] b50[1] b50[1]a a181 a18 a17 a71 b2[0] b2[1][0] b2[1][1][0] b2[1][1][1] b2[1][1][1]b"/>
    </vehicle>

    <vehicle id="37" depart="1369.00" arrival="1600.00">
        <route edges="a201 a201c a204a[0] a124 b12 b50[0] b50[1] b50[1]a a181 a18 a17 a71 b2[0] b2[1][0] b2[1][1][0] b2[1][1][1] b2[1][1][1]b"/>
    </vehicle>

    <vehicle id="34" depart="1299.00" arrival="1605.00">
        <route edges="a201 a201c a204a[0] a124 b12 b50[0] b50[1] b50[1]a a181 a18 a17 a71 b2[0] b2[1][0] b2[1][1][0] b2[1][1][1] b2[1][1][1]b"/>
    </vehicle>

    <vehicle id="36" depart="1345.00" arrival="1607.00">
        <route edges="a201 a201c a204a[0] a124 b12 b50[0] b50[1] b50[1]a a181 a18 a17 a71 b2[0] b2[1][0] b2[1][1][0] b2[1][1][1] b2[1][1][1]b"/>
    </vehicle>

    <vehicle id="35" depart="1322.00" arrival="1646.00">
        <route edges="a210 a43[0] a43[1] a115 a110 a185 a92 a90 am91 a88 a187 a191 a17 a71 b38[0] b38[0]a b37 b26 b26.-170 b15 b13[1] b4[0]"/>
    </vehicle>

    <vehicle id="38" depart="1420.00" arrival="1732.00">
        <route edges="a210 a43[0] a43[1] a115 a110 a185 a92 a90 am91 a88 a187 a191 a17 a71 b38[0] b38[0]a b37 b26 b26.-170 b18 b20+19a"/>
    </vehicle>

    <vehicle id="42" depart="1530.00" arrival="1734.00">
        <route edges="a201 a201c a204a[0] a124 b12 b50[0] b50[1] b50[1]a a181 a18 a17 a71 b2[0] b2[1][0] b2[1][1][0] b2[1][1][1] b2[1][1][1]b"/>
    </vehicle>

    <vehicle id="39" depart="1440.00" arrival="1739.00">
        <route edges="a210 a43[0] a43[1] a115 a110 a185 a92 a90 am91 a88 a187 a191 a17 a71 b38[0] b38[0]a b37 b26 b26.-170 b18 b20+19a"/>
    </vehicle>

    <vehicle id="40" depart="1445.00" arrival="1770.00">
        <route edges="a210 a43[0] a43[1] a115 a110 a185 a92 a90 am91 a88 a187 a191 a17 a71 b38[0] b38[0]a b37 b26 b26.-170 b15 b13[1] b4[0]"/>
    </vehicle>

    <vehicle id="43" depart="1552.00" arrival="1840.00">
        <route edges="a201 a201c a204a[0] a124 b12 b50[0] b50[1] b50[1]a a181 a18 a17 a71 b2[0] b2[1][0] b2[1][1][0] b2[1][1][1] b2[1][1][1]b"/>
    </vehicle>

    <vehicle id="41" depart="1527.00" arrival="1845.00">
        <route edges="a201 a201c a204a[0] a124 b12 b50[0] b50[1] b50[1]a a181 a18 a17 a71 b2[0] b2[1][0] b2[1][1][0] b2[1][1][1] b2[1][1][1]b"/>
    </vehicle>

    <vehicle id="45" depart="1605.00" arrival="1966.00">
        <route edges="a201 a201c a204a[0] a124 b12 b50[0] b50[1] b50[1]a a181 a18 a17 a71 b2[0] b2[1][0] b2[1][1][0] b2[1][1][1] b2[1][1][1]b"/>
    </vehicle>

    <vehicle id="44" depart="1594.00" arrival="1968.00">
        <route edges="a201 a201c a204a[0] a124 b12 b50[0] b50[1] b50[1]a a181 a18 a17 a71 b2[0] b2[1][0] b2[1][1][0] b2[1][1][1] b2[1][1][1]b"/>
    </vehicle>

    <vehicle id="46" depart="1703.00" arrival="1971.00">
        <route edges="a201 a201c a204a[0] a124 b12 b50[0] b50[1] b50[1]a a181 a18 a17 a71 b2[0] b2[1][0] b2[1][1][0] b2[1][1][1] b2[1][1][1]b"/>
    </vehicle>

    <vehicle id="47" depart="1717.00" arrival="2024.00">
        <route edges="a210 a43[0] a43[1] a115 a110 a185 a92 a90 am91 a88 a187 a191 a17 a71 b38[0] b38[0]a b37 b26 b26.-170 b15 b13[1] b4[0]"/>
    </vehicle>

    <vehicle id="51" depart="1881.00" arrival="2100.00">
        <route edges="a201 a201c a204a[0] a124 b12 b50[0] b50[1] b50[1]a a181 a18 a17 a71 b2[0] b2[1][0] b2[1][1][0] b2[1][1][1] b2[1][1][1]b"/>
    </vehicle>

    <vehicle id="48" depart="1726.00" arrival="2109.00">
        <route edges="a201 a201c a204a[0] a124 b12 b50[0] b50[1] b50[1]a a181 a18 a17 a71 b2[0] b2[1][0] b2[1][1][0] b2[1][1][1] b2[1][1][1]b"/>
    </vehicle>

    <vehicle id="53" depart="1896.00" arrival="2227.00">
        <route edges="a201 a201c a204a[0] a124 b12 b50[0] b50[1] b50[1]a a181 a18 a17 a71 b2[0] b2[1][0] b2[1][1][0] b2[1][1][1] b2[1][1][1]b"/>
    </vehicle>

    <vehicle id="54" depart="1899.00" arrival="2230.00">
        <route edges="a201 a201c a204a[0] a124 b12 b50[0] b50[1] b50[1]a a181 a18 a17 a71 b2[0] b2[1][0] b2[1][1][0] b2[1][1][1] b2[1][1][1]b"/>
    </vehicle>

    <vehicle id="52" depart="1884.00" arrival="2236.00">
        <route edges="a210 a43[0] a43[1] a115 a110 a185 a92 a90 am91 a88 a187 a191 a17 a71 b38[0] b38[0]a b37 b26 b26.-170 b18 b20+19a"/>
    </vehicle>

    <vehicle id="49" depart="1855.00" arrival="2237.00">
        <route edges="a201 a201c a204a[0] a124 b12 b50[0] b50[1] b50[1]a a181 a18 a17 a71 b2[0] b2[1][0] b2[1][1][0] b2[1][1][1] b2[1][1][1]b"/>
    </vehicle>

    <vehicle id="56" depart="1928.00" arrival="2243.00">
        <route edges="a210 a43[0] a43[1] a115 a110 a185 a92 a90 am91 a88 a187 a191 a17 a71 b38[0] b38[0]a b37 b26 b26.-170 b18 b20+19a"/>
    </vehicle>

    <vehicle id="58" depart="2004.00" arrival="2245.00">
        <route edges="a210 a43[0] a43[1] a115 a110 a185 a92 a90 am91 a88 a187 a191 a17 a71 b38[0] b38[0]a b37 b26 b26.-170 b18 b20+19a"/>
    </vehicle>

    <vehicle id="55" depart="1917.00" arrival="2274.00">
        <route edges="a210 a43[0] a43[1] a115 a110 a185 a92 a90 am91 a88 a187 a191 a17 a71 b38[0] b38[0]a b37 b26 b26.-170 b15 b13[1] b4[0]"/>
    </vehicle>

    <vehicle id="50" depart="1877.00" arrival="2275.00">
        <route edges="a210 a43[0] a43[1] a115 a110 a185 a92 a90 am91 a88 a187 a191 a17 a71 b38[0] b38[0]a b37 b26 b26.-170 b15 b13[1] b4[0]"/>
    </vehicle>

    <vehicle id="57" depart="1978.00" arrival="2277.00">
        <route edges="a210 a43[0] a43[1] a115 a110 a185 a92 a90 am91 a88 a187 a191 a17 a71 b38[0] b38[0]a b37 b26 b26.-170 b15 b13[1] b4[0]"/>
    </vehicle>

    <vehicle id="60" depart="2137.00" arrival="2330.00">
        <route edges="a201 a201c a204a[0] a124 b12 b50[0] b50[1] b50[1]a a181 a18 a17 a71 b2[0] b2[1][0] b2[1][1][0] b2[1][1][1] b2[1][1][1]b"/>
    </vehicle>

    <vehicle id="59" depart="2092.00" arrival="2336.00">
        <route edges="a201 a201c a204a[0] a124 b12 b50[0] b50[1] b50[1]a a181 a18 a17 a71 b2[0] b2[1][0] b2[1][1][0] b2[1][1][1] b2[1][1][1]b"/>
    </vehicle>

    <vehicle id="62" depart="2150.00" arrival="2468.00">
        <route edges="a201 a201c a204a[0] a124 b12 b50[0] b50[1] b50[1]a a181 a18 a17 a71 b2[0] b2[1][0] b2[1][1][0] b2[1][1][1] b2[1][1][1]b"/>
    </vehicle>

    <vehicle id="63" depart="2172.00" arrival="2469.00">
        <route edges="a201 a201c a204a[0] a124 b12 b50[0] b50[1] b50[1]a a181 a18 a17 a71 b2[0] b2[1][0] b2[1][1][0] b2[1][1][1] b2[1][1][1]b"/>
    </vehicle>

    <vehicle id="61" depart="2145.00" arrival="2500.00">
        <route edges="a210 a43[0] a43[1] a115 a110 a185 a92 a90 am91 a88 a187 a191 a17 a71 b38[0] b38[0]a b37 b26 b26.-170 b15 b13[1] b4[0]"/>
    </vehicle>

    <vehicle id="64" depart="2223.00" arrival="2510.00">
        <route edges="a210 a43[0] a43[1] a115 a110 a185 a92 a90 am91 a88 a187 a191 a17 a71 b38[0] b38[0]a b37 b26 b26.-170 b15 b13[1] b4[0]"/>
    </vehicle>

    <vehicle id="70" depart="2357.00" arrival="2601.00">
        <route edges="a201 a201c a204a[0] a124 b12 b50[0] b50[1] b50[1]a a181 a18 a17 a71 b2[0] b2[1][0] b2[1][1][0] b2[1][1][1] b2[1][1][1]b"/>
    </vehicle>

    <vehicle id="65" depart="2276.00" arrival="2640.00">
        <route edges="a210 a43[0] a43[1] a115 a110 a185 a92 a90 am91 a88 a187 a191 a17 a71 b38[0] b38[0]a b37 b26 b26.-170 b15 b13[1] b4[0]"/>
    </vehicle>

    <vehicle id="66" depart="2297.00" arrival="2642.00">
        <route edges="a210 a43[0] a43[1] a115 a110 a185 a92 a90 am91 a88 a187 a191 a17 a71 b38[0] b38[0]a b37 b26 b26.-170 b15 b13[1] b4[0]"/>
    </vehicle>

    <vehicle id="68" depart="2324.00" arrival="2645.00">
        <route edges="a210 a43[0] a43[1] a115 a110 a185 a92 a90 am91 a88 a187 a191 a17 a71 b38[0] b38[0]a b37 b26 b26.-170 b15 b13[1] b4[0]"/>
    </vehicle>

    <vehicle id="67" depart="2300.00" arrival="2646.00">
        <route edges="a210 a43[0] a43[1] a115 a110 a185 a92 a90 am91 a88 a187 a191 a17 a71 b38[0] b38[0]a b37 b26 b26.-170 b15 b13[1] b4[0]"/>
    </vehicle>

    <vehicle id="69" depart="2328.00" arrival="2648.00">
        <route edges="a210 a43[0] a43[1] a115 a110 a185 a92 a90 am91 a88 a187 a191 a17 a71 b38[0] b38[0]a b37 b26 b26.-170 b15 b13[1] b4[0]"/>
    </vehicle>

    <vehicle id="73" depart="2434.00" arrival="2725.00">
        <route edges="a201 a201c a204a[0] a124 b12 b50[0] b50[1] b50[1]a a181 a18 a17 a71 b2[0] b2[1][0] b2[1][1][0] b2[1][1][1] b2[1][1][1]b"/>
    </vehicle>

    <vehicle id="71" depart="2413.00" arrival="2727.00">
        <route edges="a201 a201c a204a[0] a124 b12 b50[0] b50[1] b50[1]a a181 a18 a17 a71 b2[0] b2[1][0] b2[1][1][0] b2[1][1][1] b2[1][1][1]b"/>
    </vehicle>

    <vehicle id="72" depart="2418.00" arrival="2730.00">
        <route edges="a201 a201c a204a[0] a124 b12 b50[0] b50[1] b50[1]a a181 a18 a17 a71 b2[0] b2[1][0] b2[1][1][0] b2[1][1][1] b2[1][1][1]b"/>
    </vehicle>

    <vehicle id="74" depart="2576.00" arrival="2853.00">
        <route edges="a201 a201c a204a[0] a124 b12 b50[0] b50[1] b50[1]a a181 a18 a17 a71 b2[0] b2[1][0] b2[1][1][0] b2[1][1][1] b2[1][1][1]b"/>
    </vehicle>

    <vehicle id="75" depart="2584.00" arrival="2927.00">
        <route edges="a210 a43[0] a43[1] a201 a201c a204a[0] a124 b12 b56[0] b56[1][0] b56[1][1] b5[1][0]+66 b5[1][1][1] b8 b3[1] b3[1]b"/>
    </vehicle>

    <vehicle id="76" depart="2609.00" arrival="2976.00">
        <route edges="a201 a201c a204a[0] a124 b12 b50[0] b50[1] b50[1]a a181 a18 a17 a71 b2[0] b2[1][0] b2[1][1][0] b2[1][1][1] b2[1][1][1]b"/>
    </vehicle>

    <vehicle id="78" depart="2689.00" arrival="2977.00">
        <route edges="a201 a201c a204a[0] a124 b12 b50[0] b50[1] b50[1]a a181 a18 a17 a71 b2[0] b2[1][0] b2[1][1][0] b2[1][1][1] b2[1][1][1]b"/>
    </vehicle>

    <vehicle id="77" depart="2636.00" arrival="3015.00">
        <route edges="a210 a43[0] a43[1] a115 a110 a185 a92 a90 am91 a88 a187 a191 a17 a71 b38[0] b38[0]a b37 b26 b26.-170 b15 b13[1] b4[0]"/>
    </vehicle>

    <vehicle id="79" depart="2760.00" arrival="3017.00">
        <route edges="a210 a43[0] a43[1] a115 a110 a185 a92 a90 am91 a88 a187 a191 a17 a71 b38[0] b38[0]a b37 b26 b26.-170 b15 b13[1] b4[0]"/>
    </vehicle>

    <vehicle id="81" depart="2782.00" arrival="3089.00">
        <route edges="a210 a43[0] a43[1] a115 a110 a185 a92 a90 am91 a88 a187 a191 a17 a71 b38[0] b38[0]a b37 b26 b26.-170 b18 b20+19a"/>
    </vehicle>

    <vehicle id="82" depart="2857.00" arrival="3115.00">
        <route edges="a210 a43[0] a43[1] a201 a201c a204a[0] a124 b12 b56[0] b56[1][0] b56[1][1] b5[1][0]+66 b5[1][1][1] b8 b3[1] b3[1]b"/>
    </vehicle>

    <vehicle id="80" depart="2772.00" arrival="3120.00">
        <route edges="a210 a43[0] a43[1] a115 a110 a185 a92 a90 am91 a88 a187 a191 a17 a71 b38[0] b38[0]a b37 b26 b26.-170 b15 b13[1] b4[0]"/>
    </vehicle>

    <vehicle id="84" depart="2880.00" arrival="3186.00">
        <route edges="a201 a201c a204a[0] a124 b12 b50[0] b50[1] b50[1]a a181 a18 a17 a71 b2[0] b2[1][0] b2[1][1][0] b2[1][1][1] b2[1][1][1]b"/>
    </vehicle>

    <vehicle id="83" depart="2858.00" arrival="3197.00">
        <route edges="a201 a201c a204a[0] a124 b12 b50[0] b50[1] b50[1]a a181 a18 a17 a71 b2[0] b2[1][0] b2[1][1][0] b2[1][1][1] b2[1][1][1]b"/>
    </vehicle>

    <vehicle id="85" depart="2915.00" arrival="3213.00">
        <route edges="a210 a43[0] a43[1] a115 a110 a185 a92 a90 am91 a88 a187 a191 a17 a71 b38[0] b38[0]a b37 b26 b26.-170 b18 b20+19a"/>
    </vehicle>

    <vehicle id="87" depart="2948.00" arrival="3246.00">
        <route edges="a210 a43[0] a43[1] a115 a110 a185 a92 a90 am91 a88 a187 a191 a17 a71 b38[0] b38[0]a b37 b26 b26.-170 b15 b13[1] b4[0]"/>
    </vehicle>

    <vehicle id="88" depart="2961.00" arrival="3317.00">
        <route edges="a201 a201c a204a[0] a124 b12 b50[0] b50[1] b50[1]a a181 a18 a17 a71 b2[0] b2[1][0] b2[1][1][0] b2[1][1][1] b2[1][1][1]b"/>
    </vehicle>

    <vehicle id="86" depart="2937.00" arrival="3318.00">
        <route edges="a201 a201c a204a[0] a124 b12 b50[0] b50[1] b50[1]a a181 a18 a17 a71 b2[0] b2[1][0] b2[1][1][0] b2[1][1][1] b2[1][1][1]b"/>
    </vehicle>

    <vehicle id="89" depart="2964.00" arrival="3319.00">
        <route edges="a201 a201c a204a[0] a124 b12 b50[0] b50[1] b50[1]a a181 a18 a17 a71 b2[0] b2[1][0] b2[1][1][0] b2[1][1][1] b2[1][1][1]b"/>
    </vehicle>

    <vehicle id="90" depart="3065.00" arrival="3368.00">
        <route edges="a210 a43[0] a43[1] a115 a110 a185 a92 a90 am91 a88 a187 a191 a17 a71 b38[0] b38[0]a b37 b26 b26.-170 b15 b13[1] b4[0]"/>
    </vehicle>

    <vehicle id="91" depart="3094.00" arrival="3449.00">
        <route edges="a201 a201c a204a[0] a124 b12 b50[0] b50[1] b50[1]a a181 a18 a17 a71 b2[0] b2[1][0] b2[1][1][0] b2[1][1][1] b2[1][1][1]b"/>
    </vehicle>

    <vehicle id="92" depart="3130.00" arrival="3455.00">
        <route edges="a201 a201c a204a[0] a124 b12 b50[0] b50[1] b50[1]a a181 a18 a17 a71 b2[0] b2[1][0] b2[1][1][0] b2[1][1][1] b2[1][1][1]b"/>
    </vehicle>

    <vehicle id="93" depart="3229.00" arrival="3461.00">
        <route edges="a210 a43[0] a43[1] a115 a110 a185 a92 a90 am91 a88 a187 a191 a17 a71 b38[0] b38[0]a b37 b26 b26.-170 b18 b20+19a"/>
    </vehicle>

    <vehicle id="95" depart="3262.00" arrival="3512.00">
        <route edges="a210 a43[0] a43[1] a201 a201c a204a[0] a124 b12 b56[0] b56[1][0] b56[1][1] b5[1][0]+66 b5[1][1][1] b8 b3[1] b3[1]b"/>
    </vehicle>

    <vehicle id="94" depart="3260.00" arrival="3558.00">
        <route edges="a201 a201c a204a[0] a124 b12 b50[0] b50[1] b50[1]a a181 a18 a17 a71 b2[0] b2[1][0] b2[1][1][0] b2[1][1][1] b2[1][1][1]b"/>
    </vehicle>

    <vehicle id="96" depart="3304.00" arrival="3564.00">
        <route edges="a201 a201c a204a[0] a124 b12 b50[0] b50[1] b50[1]a a181 a18 a17 a71 b2[0] b2[1][0] b2[1][1][0] b2[1][1][1] b2[1][1][1]b"/>
    </vehicle>

    <vehicle id="98" depart="3437.00" arrival="3692.00">
        <route edges="a201 a201c a204a[0] a124 b12 b50[0] b50[1] b50[1]a a181 a18 a17 a71 b2[0] b2[1][0] b2[1][1][0] b2[1][1][1] b2[1][1][1]b"/>
    </vehicle>

    <vehicle id="97" depart="3347.00" arrival="3697.00">
        <route edges="a201 a201c a204a[0] a124 b12 b50[0] b50[1] b50[1]a a181 a18 a17 a71 b2[0] b2[1][0] b2[1][1][0] b2[1][1][1] b2[1][1][1]b"/>
    </vehicle>

    <vehicle id="99" depart="3517.00" arrival="3840.00">
        <route edges="a210 a43[0] a43[1] a115 a110 a185 a92 a90 am91 a88 a187 a191 a17 a71 b38[0] b38[0]a b37 b26 b26.-170 b18 b20+19a"/>
    </vehicle>

</routes>
