<?xml version="1.0" encoding="UTF-8"?>

<!-- generated on 2025-03-20 10:24:17 by Eclipse SUMO sumo Version 1.21.0
<sumoConfiguration xmlns:xsi="http://www.w3.org/2001/XMLSchema-instance" xsi:noNamespaceSchemaLocation="http://sumo.dlr.de/xsd/sumoConfiguration.xsd">

    <input>
        <net-file value="${STATICPATH}/joined_lanes.net.xml"/>
        <route-files value="${SIMULATIONPATH}/generatedRoutes.rou.xml"/>
        <additional-files value="${STATICPATH}/detectors.add.xml,${STATICPATH}/joined_vtypes.add.xml,${STATICPATH}/joined_tls.add.xml"/>
    </input>

    <output>
        <fcd-output value="${SIMULATIONPATH}/fcd.xml"/>
        <queue-output value="${SIMULATIONPATH}/queue.xml"/>
        <summary-output value="${SIMULATIONPATH}/summary.xml"/>
        <tripinfo-output value="${SIMULATIONPATH}/tripinfos.xml"/>
        <vehroute-output value="${SIMULATIONPATH}/vehroute.xml"/>
        <save-state.prefix value="configs\state"/>
    </output>

    <processing>
        <ignore-junction-blocker value="1"/>
        <ignore-route-errors value="true"/>
        <time-to-teleport value="-1"/>
    </processing>

    <report>
        <log value="C:/Users/fabio/Desktop/sumo_log.txt"/>
        <no-step-log value="true"/>
    </report>

    <emissions>
        <phemlight-path value="configs\./PHEMlight/"/>
    </emissions>

    <traci_server>
        <remote-port value="56085"/>
    </traci_server>

</sumoConfiguration>
-->

<tripinfos xmlns:xsi="http://www.w3.org/2001/XMLSchema-instance" xsi:noNamespaceSchemaLocation="http://sumo.dlr.de/xsd/tripinfo_file.xsd">
    <tripinfo id="1" depart="7.00" departLane="a210_0" departPos="5.10" departSpeed="0.00" departDelay="0.23" arrival="261.00" arrivalLane="b10_0" arrivalPos="224.30" arrivalSpeed="12.06" duration="254.00" routeLength="2833.68" waitingTime="6.00" waitingCount="3" stopTime="0.00" timeLoss="35.73" rerouteNo="0" devices="vehroute_1 tripinfo_1 fcd_1" vType="DEFAULT_VEHTYPE" speedFactor="0.94" vaporized=""/>
    <tripinfo id="3" depart="11.00" departLane="a74_0" departPos="5.10" departSpeed="0.00" departDelay="0.48" arrival="360.00" arrivalLane="b2[1][1][1]b_0" arrivalPos="325.74" arrivalSpeed="13.98" duration="349.00" routeLength="3351.92" waitingTime="82.00" waitingCount="2" stopTime="0.00" timeLoss="123.54" rerouteNo="0" devices="vehroute_3 tripinfo_3 fcd_3" vType="DEFAULT_VEHTYPE" speedFactor="1.08" vaporized=""/>
    <tripinfo id="0" depart="1.00" departLane="a74_0" departPos="5.10" departSpeed="0.00" departDelay="0.32" arrival="364.00" arrivalLane="b2[1][1][1]b_0" arrivalPos="325.74" arrivalSpeed="14.64" duration="363.00" routeLength="3353.45" waitingTime="88.00" waitingCount="3" stopTime="0.00" timeLoss="132.30" rerouteNo="0" devices="vehroute_0 tripinfo_0 fcd_0" vType="DEFAULT_VEHTYPE" speedFactor="1.06" vaporized=""/>
    <tripinfo id="4" depart="14.00" departLane="a74_0" departPos="5.10" departSpeed="0.00" departDelay="0.26" arrival="367.00" arrivalLane="b2[1][1][1]b_0" arrivalPos="325.74" arrivalSpeed="14.05" duration="353.00" routeLength="3351.92" waitingTime="76.00" waitingCount="2" stopTime="0.00" timeLoss="116.21" rerouteNo="0" devices="vehroute_4 tripinfo_4 fcd_4" vType="DEFAULT_VEHTYPE" speedFactor="1.03" vaporized=""/>
    <tripinfo id="6" depart="26.00" departLane="a74_0" departPos="5.10" departSpeed="0.00" departDelay="0.69" arrival="381.00" arrivalLane="b2[1][1][1]b_0" arrivalPos="325.74" arrivalSpeed="14.49" duration="355.00" routeLength="3351.92" waitingTime="88.00" waitingCount="2" stopTime="0.00" timeLoss="121.75" rerouteNo="0" devices="vehroute_6 tripinfo_6 fcd_6" vType="DEFAULT_VEHTYPE" speedFactor="1.05" vaporized=""/>
    <tripinfo id="13" depart="91.00" departLane="a210_0" departPos="5.10" departSpeed="0.00" departDelay="0.49" arrival="397.00" arrivalLane="b10_0" arrivalPos="224.30" arrivalSpeed="15.10" duration="306.00" routeLength="2833.68" waitingTime="83.00" waitingCount="5" stopTime="0.00" timeLoss="123.86" rerouteNo="0" devices="vehroute_13 tripinfo_13 fcd_13" vType="DEFAULT_VEHTYPE" speedFactor="1.12" vaporized=""/>
    <tripinfo id="2" depart="10.00" departLane="a210_0" departPos="5.10" departSpeed="0.00" departDelay="2.43" arrival="399.00" arrivalLane="b17[1]_0" arrivalPos="187.21" arrivalSpeed="13.84" duration="389.00" routeLength="2779.71" waitingTime="142.00" waitingCount="5" stopTime="0.00" timeLoss="187.96" rerouteNo="0" devices="vehroute_2 tripinfo_2 fcd_2" vType="DEFAULT_VEHTYPE" speedFactor="1.01" vaporized=""/>
    <tripinfo id="10" depart="68.00" departLane="a210_0" departPos="5.10" departSpeed="0.00" departDelay="3.20" arrival="401.00" arrivalLane="b17[1]_0" arrivalPos="187.21" arrivalSpeed="14.91" duration="333.00" routeLength="2779.71" waitingTime="93.00" waitingCount="4" stopTime="0.00" timeLoss="145.10" rerouteNo="0" devices="vehroute_10 tripinfo_10 fcd_10" vType="DEFAULT_VEHTYPE" speedFactor="1.09" vaporized=""/>
    <tripinfo id="9" depart="65.00" departLane="a210_0" departPos="5.10" departSpeed="0.00" departDelay="0.40" arrival="416.00" arrivalLane="b17[1]_0" arrivalPos="187.21" arrivalSpeed="11.09" duration="351.00" routeLength="2779.71" waitingTime="65.00" waitingCount="5" stopTime="0.00" timeLoss="112.94" rerouteNo="0" devices="vehroute_9 tripinfo_9 fcd_9" vType="DEFAULT_VEHTYPE" speedFactor="0.86" vaporized=""/>
    <tripinfo id="11" depart="80.00" departLane="a210_0" departPos="5.10" departSpeed="0.00" departDelay="0.67" arrival="418.00" arrivalLane="b17[1]_0" arrivalPos="187.21" arrivalSpeed="14.07" duration="338.00" routeLength="2779.71" waitingTime="60.00" waitingCount="3" stopTime="0.00" timeLoss="139.01" rerouteNo="0" devices="vehroute_11 tripinfo_11 fcd_11" vType="DEFAULT_VEHTYPE" speedFactor="1.03" vaporized=""/>
    <tripinfo id="31" depart="179.00" departLane="a210_0" departPos="5.10" departSpeed="0.00" departDelay="0.81" arrival="419.00" arrivalLane="b17[1]_0" arrivalPos="187.21" arrivalSpeed="15.62" duration="240.00" routeLength="2779.71" waitingTime="2.00" waitingCount="1" stopTime="0.00" timeLoss="63.62" rerouteNo="0" devices="vehroute_31 tripinfo_31 fcd_31" vType="DEFAULT_VEHTYPE" speedFactor="1.15" vaporized=""/>
    <tripinfo id="19" depart="114.00" departLane="a74_0" departPos="5.10" departSpeed="0.00" departDelay="1.98" arrival="484.00" arrivalLane="b2[1][1][1]b_1" arrivalPos="325.74" arrivalSpeed="15.33" duration="370.00" routeLength="3353.45" waitingTime="75.00" waitingCount="1" stopTime="0.00" timeLoss="158.99" rerouteNo="0" devices="vehroute_19 tripinfo_19 fcd_19" vType="DEFAULT_VEHTYPE" speedFactor="1.16" vaporized=""/>
    <tripinfo id="28" depart="162.00" departLane="a74_0" departPos="5.10" departSpeed="0.00" departDelay="0.53" arrival="488.00" arrivalLane="b2[1][1][1]b_2" arrivalPos="325.74" arrivalSpeed="15.41" duration="326.00" routeLength="3348.96" waitingTime="61.00" waitingCount="2" stopTime="0.00" timeLoss="110.31" rerouteNo="0" devices="vehroute_28 tripinfo_28 fcd_28" vType="DEFAULT_VEHTYPE" speedFactor="1.13" vaporized=""/>
    <tripinfo id="14" depart="98.00" departLane="a74_0" departPos="5.10" departSpeed="0.00" departDelay="0.17" arrival="490.00" arrivalLane="b2[1][1][1]b_0" arrivalPos="325.74" arrivalSpeed="13.74" duration="392.00" routeLength="3351.92" waitingTime="109.00" waitingCount="3" stopTime="0.00" timeLoss="144.95" rerouteNo="0" devices="vehroute_14 tripinfo_14 fcd_14" vType="DEFAULT_VEHTYPE" speedFactor="0.99" vaporized=""/>
    <tripinfo id="21" depart="121.00" departLane="a74_0" departPos="5.10" departSpeed="0.00" departDelay="0.82" arrival="490.00" arrivalLane="b2[1][1][1]b_1" arrivalPos="325.74" arrivalSpeed="13.52" duration="369.00" routeLength="3356.41" waitingTime="83.00" waitingCount="2" stopTime="0.00" timeLoss="127.50" rerouteNo="0" devices="vehroute_21 tripinfo_21 fcd_21" vType="DEFAULT_VEHTYPE" speedFactor="1.01" vaporized=""/>
    <tripinfo id="8" depart="49.00" departLane="a74_0" departPos="5.10" departSpeed="0.00" departDelay="0.75" arrival="493.00" arrivalLane="b2[1][1][1]b_0" arrivalPos="325.74" arrivalSpeed="12.65" duration="444.00" routeLength="3348.96" waitingTime="145.00" waitingCount="3" stopTime="0.00" timeLoss="183.99" rerouteNo="0" devices="vehroute_8 tripinfo_8 fcd_8" vType="DEFAULT_VEHTYPE" speedFactor="0.94" vaporized=""/>
    <tripinfo id="20" depart="118.00" departLane="a74_0" departPos="5.10" departSpeed="0.00" departDelay="0.48" arrival="493.00" arrivalLane="b2[1][1][1]b_1" arrivalPos="325.74" arrivalSpeed="13.51" duration="375.00" routeLength="3348.96" waitingTime="78.00" waitingCount="2" stopTime="0.00" timeLoss="134.86" rerouteNo="0" devices="vehroute_20 tripinfo_20 fcd_20" vType="DEFAULT_VEHTYPE" speedFactor="1.02" vaporized=""/>
    <tripinfo id="18" depart="111.00" departLane="a74_0" departPos="5.10" departSpeed="0.00" departDelay="4.19" arrival="495.00" arrivalLane="b2[1][1][1]b_0" arrivalPos="325.74" arrivalSpeed="12.06" duration="384.00" routeLength="3356.41" waitingTime="87.00" waitingCount="2" stopTime="0.00" timeLoss="123.01" rerouteNo="0" devices="vehroute_18 tripinfo_18 fcd_18" vType="DEFAULT_VEHTYPE" speedFactor="0.94" vaporized=""/>
    <tripinfo id="17" depart="108.00" departLane="a74_0" departPos="5.10" departSpeed="0.00" departDelay="2.29" arrival="497.00" arrivalLane="b2[1][1][1]b_0" arrivalPos="325.74" arrivalSpeed="12.95" duration="389.00" routeLength="3351.92" waitingTime="85.00" waitingCount="3" stopTime="0.00" timeLoss="129.47" rerouteNo="0" devices="vehroute_17 tripinfo_17 fcd_17" vType="DEFAULT_VEHTYPE" speedFactor="0.94" vaporized=""/>
    <tripinfo id="15" depart="101.00" departLane="a74_0" departPos="5.10" departSpeed="0.00" departDelay="2.29" arrival="500.00" arrivalLane="b2[1][1][1]b_0" arrivalPos="325.74" arrivalSpeed="12.01" duration="399.00" routeLength="3348.96" waitingTime="89.00" waitingCount="3" stopTime="0.00" timeLoss="135.81" rerouteNo="0" devices="vehroute_15 tripinfo_15 fcd_15" vType="DEFAULT_VEHTYPE" speedFactor="0.93" vaporized=""/>
    <tripinfo id="16" depart="105.00" departLane="a74_0" departPos="5.10" departSpeed="0.00" departDelay="0.34" arrival="506.00" arrivalLane="b2[1][1][1]b_0" arrivalPos="325.74" arrivalSpeed="11.49" duration="401.00" routeLength="3356.41" waitingTime="65.00" waitingCount="3" stopTime="0.00" timeLoss="122.12" rerouteNo="0" devices="vehroute_16 tripinfo_16 fcd_16" vType="DEFAULT_VEHTYPE" speedFactor="0.88" vaporized=""/>
    <tripinfo id="22" depart="131.00" departLane="a74_0" departPos="5.10" departSpeed="0.00" departDelay="0.36" arrival="507.00" arrivalLane="b2[1][1][1]b_0" arrivalPos="325.74" arrivalSpeed="12.74" duration="376.00" routeLength="3351.92" waitingTime="63.00" waitingCount="2" stopTime="0.00" timeLoss="126.15" rerouteNo="0" devices="vehroute_22 tripinfo_22 fcd_22" vType="DEFAULT_VEHTYPE" speedFactor="0.97" vaporized=""/>
    <tripinfo id="23" depart="144.00" departLane="a74_0" departPos="5.10" departSpeed="0.00" departDelay="0.84" arrival="507.00" arrivalLane="b2[1][1][1]b_1" arrivalPos="325.74" arrivalSpeed="12.32" duration="363.00" routeLength="3351.92" waitingTime="54.00" waitingCount="2" stopTime="0.00" timeLoss="88.68" rerouteNo="0" devices="vehroute_23 tripinfo_23 fcd_23" vType="DEFAULT_VEHTYPE" speedFactor="0.89" vaporized=""/>
    <tripinfo id="24" depart="147.00" departLane="a74_0" departPos="5.10" departSpeed="0.00" departDelay="0.99" arrival="515.00" arrivalLane="b2[1][1][1]b_0" arrivalPos="325.74" arrivalSpeed="10.95" duration="368.00" routeLength="3351.92" waitingTime="33.00" waitingCount="2" stopTime="0.00" timeLoss="71.57" rerouteNo="0" devices="vehroute_24 tripinfo_24 fcd_24" vType="DEFAULT_VEHTYPE" speedFactor="0.83" vaporized=""/>
    <tripinfo id="12" depart="83.00" departLane="a16_0" departPos="5.10" departSpeed="0.00" departDelay="0.44" arrival="524.00" arrivalLane="b10_0" arrivalPos="224.30" arrivalSpeed="13.89" duration="441.00" routeLength="3184.15" waitingTime="131.00" waitingCount="6" stopTime="0.00" timeLoss="217.14" rerouteNo="0" devices="vehroute_12 tripinfo_12 fcd_12" vType="DEFAULT_VEHTYPE" speedFactor="1.05" vaporized=""/>
    <tripinfo id="5" depart="25.00" departLane="a16_0" departPos="5.10" departSpeed="0.00" departDelay="0.84" arrival="530.00" arrivalLane="b10_0" arrivalPos="224.30" arrivalSpeed="10.69" duration="505.00" routeLength="3184.15" waitingTime="161.00" waitingCount="6" stopTime="0.00" timeLoss="223.00" rerouteNo="0" devices="vehroute_5 tripinfo_5 fcd_5" vType="DEFAULT_VEHTYPE" speedFactor="0.83" vaporized=""/>
    <tripinfo id="7" depart="45.00" departLane="a16_0" departPos="5.10" departSpeed="0.00" departDelay="0.69" arrival="532.00" arrivalLane="b10_0" arrivalPos="224.30" arrivalSpeed="11.51" duration="487.00" routeLength="3184.15" waitingTime="141.00" waitingCount="6" stopTime="0.00" timeLoss="222.46" rerouteNo="0" devices="vehroute_7 tripinfo_7 fcd_7" vType="DEFAULT_VEHTYPE" speedFactor="0.89" vaporized=""/>
    <tripinfo id="35" depart="207.00" departLane="a210_0" departPos="5.10" departSpeed="0.00" departDelay="0.79" arrival="533.00" arrivalLane="b10_0" arrivalPos="224.30" arrivalSpeed="13.78" duration="326.00" routeLength="2833.68" waitingTime="87.00" waitingCount="4" stopTime="0.00" timeLoss="125.78" rerouteNo="0" devices="vehroute_35 tripinfo_35 fcd_35" vType="DEFAULT_VEHTYPE" speedFactor="1.02" vaporized=""/>
    <tripinfo id="34" depart="203.00" departLane="a210_0" departPos="5.10" departSpeed="0.00" departDelay="0.91" arrival="535.00" arrivalLane="b10_0" arrivalPos="224.30" arrivalSpeed="13.19" duration="332.00" routeLength="2830.72" waitingTime="88.00" waitingCount="4" stopTime="0.00" timeLoss="126.70" rerouteNo="0" devices="vehroute_34 tripinfo_34 fcd_34" vType="DEFAULT_VEHTYPE" speedFactor="0.99" vaporized=""/>
    <tripinfo id="42" depart="247.00" departLane="a210_0" departPos="5.10" departSpeed="0.00" departDelay="0.38" arrival="537.00" arrivalLane="b10_0" arrivalPos="224.30" arrivalSpeed="14.70" duration="290.00" routeLength="2833.68" waitingTime="49.00" waitingCount="3" stopTime="0.00" timeLoss="102.51" rerouteNo="0" devices="vehroute_42 tripinfo_42 fcd_42" vType="DEFAULT_VEHTYPE" speedFactor="1.09" vaporized=""/>
    <tripinfo id="48" depart="304.00" departLane="a210_0" departPos="5.10" departSpeed="0.00" departDelay="0.19" arrival="558.00" arrivalLane="b10_0" arrivalPos="224.30" arrivalSpeed="11.60" duration="254.00" routeLength="2833.68" waitingTime="0.00" waitingCount="0" stopTime="0.00" timeLoss="20.33" rerouteNo="0" devices="vehroute_48 tripinfo_48 fcd_48" vType="DEFAULT_VEHTYPE" speedFactor="0.88" vaporized=""/>
    <tripinfo id="49" depart="312.00" departLane="a210_0" departPos="5.10" departSpeed="0.00" departDelay="0.87" arrival="569.00" arrivalLane="b10_0" arrivalPos="224.30" arrivalSpeed="11.53" duration="257.00" routeLength="2833.68" waitingTime="0.00" waitingCount="0" stopTime="0.00" timeLoss="16.87" rerouteNo="0" devices="vehroute_49 tripinfo_49 fcd_49" vType="DEFAULT_VEHTYPE" speedFactor="0.85" vaporized=""/>
    <tripinfo id="33" depart="191.00" departLane="a74_0" departPos="5.10" departSpeed="0.00" departDelay="0.91" arrival="614.00" arrivalLane="b2[1][1][1]b_1" arrivalPos="325.74" arrivalSpeed="15.13" duration="423.00" routeLength="3353.45" waitingTime="141.00" waitingCount="7" stopTime="0.00" timeLoss="215.00" rerouteNo="0" devices="vehroute_33 tripinfo_33 fcd_33" vType="DEFAULT_VEHTYPE" speedFactor="1.17" vaporized=""/>
    <tripinfo id="30" depart="170.00" departLane="a74_0" departPos="5.10" departSpeed="0.00" departDelay="2.60" arrival="615.00" arrivalLane="b2[1][1][1]b_0" arrivalPos="325.74" arrivalSpeed="16.28" duration="445.00" routeLength="3351.92" waitingTime="173.00" waitingCount="6" stopTime="0.00" timeLoss="237.20" rerouteNo="0" devices="vehroute_30 tripinfo_30 fcd_30" vType="DEFAULT_VEHTYPE" speedFactor="1.18" vaporized=""/>
    <tripinfo id="40" depart="243.00" departLane="a74_0" departPos="5.10" departSpeed="0.00" departDelay="0.42" arrival="615.00" arrivalLane="b2[1][1][1]b_2" arrivalPos="325.74" arrivalSpeed="13.18" duration="372.00" routeLength="3348.96" waitingTime="82.00" waitingCount="3" stopTime="0.00" timeLoss="135.41" rerouteNo="0" devices="vehroute_40 tripinfo_40 fcd_40" vType="DEFAULT_VEHTYPE" speedFactor="1.03" vaporized=""/>
    <tripinfo id="45" depart="278.00" departLane="a74_0" departPos="5.10" departSpeed="0.00" departDelay="0.52" arrival="617.00" arrivalLane="b2[1][1][1]b_1" arrivalPos="325.74" arrivalSpeed="14.56" duration="339.00" routeLength="3348.96" waitingTime="64.00" waitingCount="4" stopTime="0.00" timeLoss="114.27" rerouteNo="0" devices="vehroute_45 tripinfo_45 fcd_45" vType="DEFAULT_VEHTYPE" speedFactor="1.09" vaporized=""/>
    <tripinfo id="43" depart="262.00" departLane="a74_0" departPos="5.10" departSpeed="0.00" departDelay="0.38" arrival="619.00" arrivalLane="b2[1][1][1]b_1" arrivalPos="325.74" arrivalSpeed="13.74" duration="357.00" routeLength="3351.92" waitingTime="62.00" waitingCount="2" stopTime="0.00" timeLoss="121.75" rerouteNo="0" devices="vehroute_43 tripinfo_43 fcd_43" vType="DEFAULT_VEHTYPE" speedFactor="1.04" vaporized=""/>
    <tripinfo id="32" depart="180.00" departLane="a74_0" departPos="5.10" departSpeed="0.00" departDelay="0.57" arrival="620.00" arrivalLane="b2[1][1][1]b_0" arrivalPos="325.74" arrivalSpeed="13.74" duration="440.00" routeLength="3356.41" waitingTime="137.00" waitingCount="5" stopTime="0.00" timeLoss="197.02" rerouteNo="0" devices="vehroute_32 tripinfo_32 fcd_32" vType="DEFAULT_VEHTYPE" speedFactor="1.01" vaporized=""/>
    <tripinfo id="44" depart="268.00" departLane="a74_0" departPos="5.10" departSpeed="0.00" departDelay="0.73" arrival="621.00" arrivalLane="b2[1][1][1]b_1" arrivalPos="325.74" arrivalSpeed="14.07" duration="353.00" routeLength="3356.41" waitingTime="65.00" waitingCount="4" stopTime="0.00" timeLoss="118.54" rerouteNo="0" devices="vehroute_44 tripinfo_44 fcd_44" vType="DEFAULT_VEHTYPE" speedFactor="1.04" vaporized=""/>
    <tripinfo id="29" depart="167.00" departLane="a74_0" departPos="5.10" departSpeed="0.00" departDelay="0.96" arrival="627.00" arrivalLane="b2[1][1][1]b_0" arrivalPos="325.74" arrivalSpeed="11.92" duration="460.00" routeLength="3348.96" waitingTime="138.00" waitingCount="5" stopTime="0.00" timeLoss="197.77" rerouteNo="0" devices="vehroute_29 tripinfo_29 fcd_29" vType="DEFAULT_VEHTYPE" speedFactor="0.93" vaporized=""/>
    <tripinfo id="39" depart="233.00" departLane="a74_0" departPos="5.10" departSpeed="0.00" departDelay="0.13" arrival="631.00" arrivalLane="b2[1][1][1]b_0" arrivalPos="325.74" arrivalSpeed="12.22" duration="398.00" routeLength="3351.92" waitingTime="76.00" waitingCount="2" stopTime="0.00" timeLoss="126.07" rerouteNo="0" devices="vehroute_39 tripinfo_39 fcd_39" vType="DEFAULT_VEHTYPE" speedFactor="0.90" vaporized=""/>
    <tripinfo id="52" depart="333.00" departLane="a210_0" departPos="5.10" departSpeed="0.00" departDelay="0.77" arrival="657.00" arrivalLane="b17[1]_0" arrivalPos="187.21" arrivalSpeed="14.12" duration="324.00" routeLength="2779.71" waitingTime="66.00" waitingCount="4" stopTime="0.00" timeLoss="124.08" rerouteNo="0" devices="vehroute_52 tripinfo_52 fcd_52" vType="DEFAULT_VEHTYPE" speedFactor="1.02" vaporized=""/>
    <tripinfo id="26" depart="163.00" departLane="a16_0" departPos="5.10" departSpeed="0.00" departDelay="2.46" arrival="658.00" arrivalLane="b10_0" arrivalPos="224.30" arrivalSpeed="12.65" duration="495.00" routeLength="3184.15" waitingTime="167.00" waitingCount="8" stopTime="0.00" timeLoss="239.84" rerouteNo="0" devices="vehroute_26 tripinfo_26 fcd_26" vType="DEFAULT_VEHTYPE" speedFactor="0.92" vaporized=""/>
    <tripinfo id="25" depart="160.00" departLane="a16_0" departPos="5.10" departSpeed="0.00" departDelay="0.20" arrival="661.00" arrivalLane="b10_0" arrivalPos="224.30" arrivalSpeed="11.86" duration="501.00" routeLength="3184.15" waitingTime="175.00" waitingCount="7" stopTime="0.00" timeLoss="232.68" rerouteNo="0" devices="vehroute_25 tripinfo_25 fcd_25" vType="DEFAULT_VEHTYPE" speedFactor="0.87" vaporized=""/>
    <tripinfo id="27" depart="166.00" departLane="a16_0" departPos="5.10" departSpeed="0.00" departDelay="4.80" arrival="663.00" arrivalLane="b10_0" arrivalPos="224.30" arrivalSpeed="13.13" duration="497.00" routeLength="3184.15" waitingTime="157.00" waitingCount="7" stopTime="0.00" timeLoss="249.59" rerouteNo="0" devices="vehroute_27 tripinfo_27 fcd_27" vType="DEFAULT_VEHTYPE" speedFactor="0.95" vaporized=""/>
    <tripinfo id="65" depart="407.00" departLane="a210_0" departPos="5.10" departSpeed="0.00" departDelay="0.40" arrival="676.00" arrivalLane="b10_0" arrivalPos="224.30" arrivalSpeed="11.99" duration="269.00" routeLength="2833.68" waitingTime="15.00" waitingCount="1" stopTime="0.00" timeLoss="36.87" rerouteNo="0" devices="vehroute_65 tripinfo_65 fcd_65" vType="DEFAULT_VEHTYPE" speedFactor="0.88" vaporized=""/>
    <tripinfo id="37" depart="226.00" departLane="a16_0" departPos="5.10" departSpeed="0.00" departDelay="0.85" arrival="698.00" arrivalLane="b10_0" arrivalPos="224.30" arrivalSpeed="15.72" duration="472.00" routeLength="3184.15" waitingTime="173.00" waitingCount="7" stopTime="0.00" timeLoss="273.50" rerouteNo="0" devices="vehroute_37 tripinfo_37 fcd_37" vType="DEFAULT_VEHTYPE" speedFactor="1.18" vaporized=""/>
    <tripinfo id="51" depart="320.00" departLane="a74_0" departPos="5.10" departSpeed="0.00" departDelay="0.18" arrival="738.00" arrivalLane="b2[1][1][1]b_0" arrivalPos="325.74" arrivalSpeed="15.53" duration="418.00" routeLength="3348.96" waitingTime="148.00" waitingCount="5" stopTime="0.00" timeLoss="209.33" rerouteNo="0" devices="vehroute_51 tripinfo_51 fcd_51" vType="DEFAULT_VEHTYPE" speedFactor="1.17" vaporized=""/>
    <tripinfo id="57" depart="352.00" departLane="a74_0" departPos="5.10" departSpeed="0.00" departDelay="0.77" arrival="739.00" arrivalLane="b2[1][1][1]b_1" arrivalPos="325.74" arrivalSpeed="14.81" duration="387.00" routeLength="3348.96" waitingTime="105.00" waitingCount="4" stopTime="0.00" timeLoss="173.42" rerouteNo="0" devices="vehroute_57 tripinfo_57 fcd_57" vType="DEFAULT_VEHTYPE" speedFactor="1.14" vaporized=""/>
    <tripinfo id="46" depart="281.00" departLane="a74_0" departPos="5.10" departSpeed="0.00" departDelay="1.59" arrival="743.00" arrivalLane="b2[1][1][1]b_1" arrivalPos="325.74" arrivalSpeed="12.57" duration="462.00" routeLength="3351.92" waitingTime="164.00" waitingCount="6" stopTime="0.00" timeLoss="217.32" rerouteNo="0" devices="vehroute_46 tripinfo_46 fcd_46" vType="DEFAULT_VEHTYPE" speedFactor="1.00" vaporized=""/>
    <tripinfo id="53" depart="335.00" departLane="a74_0" departPos="5.10" departSpeed="0.00" departDelay="0.09" arrival="743.00" arrivalLane="b2[1][1][1]b_0" arrivalPos="325.74" arrivalSpeed="14.66" duration="408.00" routeLength="3348.96" waitingTime="131.00" waitingCount="4" stopTime="0.00" timeLoss="184.97" rerouteNo="0" devices="vehroute_53 tripinfo_53 fcd_53" vType="DEFAULT_VEHTYPE" speedFactor="1.10" vaporized=""/>
    <tripinfo id="58" depart="356.00" departLane="a74_0" departPos="5.10" departSpeed="0.00" departDelay="0.05" arrival="745.00" arrivalLane="b2[1][1][1]b_2" arrivalPos="325.74" arrivalSpeed="13.78" duration="389.00" routeLength="3348.96" waitingTime="77.00" waitingCount="4" stopTime="0.00" timeLoss="150.58" rerouteNo="0" devices="vehroute_58 tripinfo_58 fcd_58" vType="DEFAULT_VEHTYPE" speedFactor="1.02" vaporized=""/>
    <tripinfo id="61" depart="379.00" departLane="a74_0" departPos="5.10" departSpeed="0.00" departDelay="0.07" arrival="745.00" arrivalLane="b2[1][1][1]b_1" arrivalPos="325.74" arrivalSpeed="15.04" duration="366.00" routeLength="3356.41" waitingTime="63.00" waitingCount="4" stopTime="0.00" timeLoss="147.02" rerouteNo="0" devices="vehroute_61 tripinfo_61 fcd_61" vType="DEFAULT_VEHTYPE" speedFactor="1.12" vaporized=""/>
    <tripinfo id="55" depart="341.00" departLane="a74_0" departPos="5.10" departSpeed="0.00" departDelay="2.47" arrival="747.00" arrivalLane="b2[1][1][1]b_0" arrivalPos="325.74" arrivalSpeed="13.77" duration="406.00" routeLength="3351.92" waitingTime="93.00" waitingCount="3" stopTime="0.00" timeLoss="160.02" rerouteNo="0" devices="vehroute_55 tripinfo_55 fcd_55" vType="DEFAULT_VEHTYPE" speedFactor="1.00" vaporized=""/>
    <tripinfo id="54" depart="338.00" departLane="a74_0" departPos="5.10" departSpeed="0.00" departDelay="1.73" arrival="748.00" arrivalLane="b2[1][1][1]b_1" arrivalPos="325.74" arrivalSpeed="13.62" duration="410.00" routeLength="3351.92" waitingTime="106.00" waitingCount="3" stopTime="0.00" timeLoss="166.25" rerouteNo="0" devices="vehroute_54 tripinfo_54 fcd_54" vType="DEFAULT_VEHTYPE" speedFactor="1.00" vaporized=""/>
    <tripinfo id="50" depart="314.00" departLane="a74_0" departPos="5.10" departSpeed="0.00" departDelay="0.15" arrival="762.00" arrivalLane="b2[1][1][1]b_0" arrivalPos="325.74" arrivalSpeed="11.05" duration="448.00" routeLength="3351.92" waitingTime="114.00" waitingCount="2" stopTime="0.00" timeLoss="162.70" rerouteNo="0" devices="vehroute_50 tripinfo_50 fcd_50" vType="DEFAULT_VEHTYPE" speedFactor="0.85" vaporized=""/>
    <tripinfo id="62" depart="383.00" departLane="a210_0" departPos="5.10" departSpeed="0.00" departDelay="0.16" arrival="768.00" arrivalLane="b17[1]_0" arrivalPos="187.21" arrivalSpeed="12.85" duration="385.00" routeLength="2779.71" waitingTime="138.00" waitingCount="6" stopTime="0.00" timeLoss="184.70" rerouteNo="0" devices="vehroute_62 tripinfo_62 fcd_62" vType="DEFAULT_VEHTYPE" speedFactor="1.02" vaporized=""/>
    <tripinfo id="63" depart="399.00" departLane="a210_0" departPos="5.10" departSpeed="0.00" departDelay="0.31" arrival="771.00" arrivalLane="b17[1]_0" arrivalPos="187.21" arrivalSpeed="12.93" duration="372.00" routeLength="2779.71" waitingTime="115.00" waitingCount="6" stopTime="0.00" timeLoss="165.83" rerouteNo="0" devices="vehroute_63 tripinfo_63 fcd_63" vType="DEFAULT_VEHTYPE" speedFactor="0.99" vaporized=""/>
    <tripinfo id="64" depart="403.00" departLane="a210_0" departPos="5.10" departSpeed="0.00" departDelay="0.03" arrival="776.00" arrivalLane="b17[1]_0" arrivalPos="187.21" arrivalSpeed="12.77" duration="373.00" routeLength="2779.71" waitingTime="100.00" waitingCount="4" stopTime="0.00" timeLoss="154.96" rerouteNo="0" devices="vehroute_64 tripinfo_64 fcd_64" vType="DEFAULT_VEHTYPE" speedFactor="0.94" vaporized=""/>
    <tripinfo id="73" depart="461.00" departLane="a210_0" departPos="5.10" departSpeed="0.00" departDelay="0.24" arrival="777.00" arrivalLane="b17[1]_0" arrivalPos="187.21" arrivalSpeed="13.74" duration="316.00" routeLength="2779.71" waitingTime="73.00" waitingCount="1" stopTime="0.00" timeLoss="123.35" rerouteNo="0" devices="vehroute_73 tripinfo_73 fcd_73" vType="DEFAULT_VEHTYPE" speedFactor="1.06" vaporized=""/>
    <tripinfo id="75" depart="468.00" departLane="a210_0" departPos="5.10" departSpeed="0.00" departDelay="0.62" arrival="780.00" arrivalLane="b17[1]_0" arrivalPos="187.21" arrivalSpeed="12.43" duration="312.00" routeLength="2779.71" waitingTime="61.00" waitingCount="3" stopTime="0.00" timeLoss="104.83" rerouteNo="0" devices="vehroute_75 tripinfo_75 fcd_75" vType="DEFAULT_VEHTYPE" speedFactor="0.98" vaporized=""/>
    <tripinfo id="38" depart="233.00" departLane="a16_0" departPos="5.10" departSpeed="0.00" departDelay="0.83" arrival="782.00" arrivalLane="b10_0" arrivalPos="224.30" arrivalSpeed="14.35" duration="549.00" routeLength="3184.15" waitingTime="219.00" waitingCount="8" stopTime="0.00" timeLoss="337.28" rerouteNo="0" devices="vehroute_38 tripinfo_38 fcd_38" vType="DEFAULT_VEHTYPE" speedFactor="1.10" vaporized=""/>
    <tripinfo id="36" depart="213.00" departLane="a16_0" departPos="5.10" departSpeed="0.00" departDelay="0.26" arrival="786.00" arrivalLane="b10_0" arrivalPos="224.30" arrivalSpeed="12.86" duration="573.00" routeLength="3184.15" waitingTime="240.00" waitingCount="9" stopTime="0.00" timeLoss="332.69" rerouteNo="0" devices="vehroute_36 tripinfo_36 fcd_36" vType="DEFAULT_VEHTYPE" speedFactor="0.97" vaporized=""/>
    <tripinfo id="41" depart="247.00" departLane="a16_0" departPos="5.10" departSpeed="0.00" departDelay="0.97" arrival="788.00" arrivalLane="b10_0" arrivalPos="224.30" arrivalSpeed="12.51" duration="541.00" routeLength="3184.15" waitingTime="202.00" waitingCount="7" stopTime="0.00" timeLoss="296.75" rerouteNo="0" devices="vehroute_41 tripinfo_41 fcd_41" vType="DEFAULT_VEHTYPE" speedFactor="0.96" vaporized=""/>
    <tripinfo id="47" depart="296.00" departLane="a16_0" departPos="5.10" departSpeed="0.00" departDelay="0.05" arrival="791.00" arrivalLane="b10_0" arrivalPos="224.30" arrivalSpeed="11.79" duration="495.00" routeLength="3184.15" waitingTime="159.00" waitingCount="8" stopTime="0.00" timeLoss="235.32" rerouteNo="0" devices="vehroute_47 tripinfo_47 fcd_47" vType="DEFAULT_VEHTYPE" speedFactor="0.90" vaporized=""/>
    <tripinfo id="56" depart="339.00" departLane="a16_0" departPos="5.10" departSpeed="0.00" departDelay="0.05" arrival="793.00" arrivalLane="b10_0" arrivalPos="224.30" arrivalSpeed="12.27" duration="454.00" routeLength="3184.15" waitingTime="118.00" waitingCount="6" stopTime="0.00" timeLoss="193.63" rerouteNo="0" devices="vehroute_56 tripinfo_56 fcd_56" vType="DEFAULT_VEHTYPE" speedFactor="0.90" vaporized=""/>
    <tripinfo id="70" depart="441.00" departLane="a210_0" departPos="5.10" departSpeed="0.00" departDelay="0.24" arrival="795.00" arrivalLane="b10_0" arrivalPos="224.30" arrivalSpeed="13.31" duration="354.00" routeLength="2833.68" waitingTime="101.00" waitingCount="5" stopTime="0.00" timeLoss="153.97" rerouteNo="0" devices="vehroute_70 tripinfo_70 fcd_70" vType="DEFAULT_VEHTYPE" speedFactor="1.02" vaporized=""/>