<?xml version="1.0" encoding="UTF-8"?>

<!-- generated on 2025-03-20 10:24:17 by Eclipse SUMO sumo Version 1.21.0
<sumoConfiguration xmlns:xsi="http://www.w3.org/2001/XMLSchema-instance" xsi:noNamespaceSchemaLocation="http://sumo.dlr.de/xsd/sumoConfiguration.xsd">

    <input>
        <net-file value="${STATICPATH}/joined_lanes.net.xml"/>
        <route-files value="${SIMULATIONPATH}/generatedRoutes.rou.xml"/>
        <additional-files value="${STATICPATH}/detectors.add.xml,${STATICPATH}/joined_vtypes.add.xml,${STATICPATH}/joined_tls.add.xml"/>
    </input>

    <output>
        <fcd-output value="${SIMULATIONPATH}/fcd.xml"/>
        <queue-output value="${SIMULATIONPATH}/queue.xml"/>
        <summary-output value="${SIMULATIONPATH}/summary.xml"/>
        <tripinfo-output value="${SIMULATIONPATH}/tripinfos.xml"/>
        <vehroute-output value="${SIMULATIONPATH}/vehroute.xml"/>
        <save-state.prefix value="configs\state"/>
    </output>

    <processing>
        <ignore-junction-blocker value="1"/>
        <ignore-route-errors value="true"/>
        <time-to-teleport value="-1"/>
    </processing>

    <report>
        <log value="C:/Users/fabio/Desktop/sumo_log.txt"/>
        <no-step-log value="true"/>
    </report>

    <emissions>
        <phemlight-path value="configs\./PHEMlight/"/>
    </emissions>

    <traci_server>
        <remote-port value="56085"/>
    </traci_server>

</sumoConfiguration>
-->

<routes xmlns:xsi="http://www.w3.org/2001/XMLSchema-instance" xsi:noNamespaceSchemaLocation="http://sumo.dlr.de/xsd/routes_file.xsd">
    <vehicle id="1" depart="7.00" arrival="261.00">
        <route edges="a210 a43[0] a43[1] a201 a201c a204a[0] a124 b12 b56[0] b56[1][0] b56[1][1] b5[1][0]+66 b5[1][1][1] b8 b10"/>
    </vehicle>

    <vehicle id="3" depart="11.00" arrival="360.00">
        <route edges="a74 a72[1] a69 a161 a122 a1b a1 a204a[0] a124 b12 b50[0] b50[1] b50[1]a a181 a18 a17 a71 b2[0] b2[1][0] b2[1][1][0] b2[1][1][1] b2[1][1][1]b"/>
    </vehicle>

    <vehicle id="0" depart="1.00" arrival="364.00">
        <route edges="a74 a72[1] a69 a161 a122 a1b a1 a204a[0] a124 b12 b50[0] b50[1] b50[1]a a181 a18 a17 a71 b2[0] b2[1][0] b2[1][1][0] b2[1][1][1] b2[1][1][1]b"/>
    </vehicle>

    <vehicle id="4" depart="14.00" arrival="367.00">
        <route edges="a74 a72[1] a69 a161 a122 a1b a1 a204a[0] a124 b12 b50[0] b50[1] b50[1]a a181 a18 a17 a71 b2[0] b2[1][0] b2[1][1][0] b2[1][1][1] b2[1][1][1]b"/>
    </vehicle>

    <vehicle id="6" depart="26.00" arrival="381.00">
        <route edges="a74 a72[1] a69 a161 a122 a1b a1 a204a[0] a124 b12 b50[0] b50[1] b50[1]a a181 a18 a17 a71 b2[0] b2[1][0] b2[1][1][0] b2[1][1][1] b2[1][1][1]b"/>
    </vehicle>

    <vehicle id="13" depart="91.00" arrival="397.00">
        <route edges="a210 a43[0] a43[1] a201 a201c a204a[0] a124 b12 b56[0] b56[1][0] b56[1][1] b5[1][0]+66 b5[1][1][1] b8 b10"/>
    </vehicle>

    <vehicle id="2" depart="10.00" arrival="399.00">
        <route edges="a210 a43[0] a43[1] a115 a110 a185 a92 a90 am91 a88 a187 a191 a17 a71 b38[0] b38[0]a b37 b26 b26.-170 b17[0] b17[1]"/>
    </vehicle>

    <vehicle id="10" depart="68.00" arrival="401.00">
        <route edges="a210 a43[0] a43[1] a115 a110 a185 a92 a90 am91 a88 a187 a191 a17 a71 b38[0] b38[0]a b37 b26 b26.-170 b17[0] b17[1]"/>
    </vehicle>

    <vehicle id="9" depart="65.00" arrival="416.00">
        <route edges="a210 a43[0] a43[1] a115 a110 a185 a92 a90 am91 a88 a187 a191 a17 a71 b38[0] b38[0]a b37 b26 b26.-170 b17[0] b17[1]"/>
    </vehicle>

    <vehicle id="11" depart="80.00" arrival="418.00">
        <route edges="a210 a43[0] a43[1] a115 a110 a185 a92 a90 am91 a88 a187 a191 a17 a71 b38[0] b38[0]a b37 b26 b26.-170 b17[0] b17[1]"/>
    </vehicle>

    <vehicle id="31" depart="179.00" arrival="419.00">
        <route edges="a210 a43[0] a43[1] a115 a110 a185 a92 a90 am91 a88 a187 a191 a17 a71 b38[0] b38[0]a b37 b26 b26.-170 b17[0] b17[1]"/>
    </vehicle>

    <vehicle id="19" depart="114.00" arrival="484.00">
        <route edges="a74 a72[1] a69 a161 a122 a1b a1 a204a[0] a124 b12 b50[0] b50[1] b50[1]a a181 a18 a17 a71 b2[0] b2[1][0] b2[1][1][0] b2[1][1][1] b2[1][1][1]b"/>
    </vehicle>

    <vehicle id="28" depart="162.00" arrival="488.00">
        <route edges="a74 a72[1] a69 a161 a122 a1b a1 a204a[0] a124 b12 b50[0] b50[1] b50[1]a a181 a18 a17 a71 b2[0] b2[1][0] b2[1][1][0] b2[1][1][1] b2[1][1][1]b"/>
    </vehicle>

    <vehicle id="14" depart="98.00" arrival="490.00">
        <route edges="a74 a72[1] a69 a161 a122 a1b a1 a204a[0] a124 b12 b50[0] b50[1] b50[1]a a181 a18 a17 a71 b2[0] b2[1][0] b2[1][1][0] b2[1][1][1] b2[1][1][1]b"/>
    </vehicle>

    <vehicle id="21" depart="121.00" arrival="490.00">
        <route edges="a74 a72[1] a69 a161 a122 a1b a1 a204a[0] a124 b12 b50[0] b50[1] b50[1]a a181 a18 a17 a71 b2[0] b2[1][0] b2[1][1][0] b2[1][1][1] b2[1][1][1]b"/>
    </vehicle>

    <vehicle id="8" depart="49.00" arrival="493.00">
        <route edges="a74 a72[1] a69 a161 a122 a1b a1 a204a[0] a124 b12 b50[0] b50[1] b50[1]a a181 a18 a17 a71 b2[0] b2[1][0] b2[1][1][0] b2[1][1][1] b2[1][1][1]b"/>
    </vehicle>

    <vehicle id="20" depart="118.00" arrival="493.00">
        <route edges="a74 a72[1] a69 a161 a122 a1b a1 a204a[0] a124 b12 b50[0] b50[1] b50[1]a a181 a18 a17 a71 b2[0] b2[1][0] b2[1][1][0] b2[1][1][1] b2[1][1][1]b"/>
    </vehicle>

    <vehicle id="18" depart="111.00" arrival="495.00">
        <route edges="a74 a72[1] a69 a161 a122 a1b a1 a204a[0] a124 b12 b50[0] b50[1] b50[1]a a181 a18 a17 a71 b2[0] b2[1][0] b2[1][1][0] b2[1][1][1] b2[1][1][1]b"/>
    </vehicle>

    <vehicle id="17" depart="108.00" arrival="497.00">
        <route edges="a74 a72[1] a69 a161 a122 a1b a1 a204a[0] a124 b12 b50[0] b50[1] b50[1]a a181 a18 a17 a71 b2[0] b2[1][0] b2[1][1][0] b2[1][1][1] b2[1][1][1]b"/>
    </vehicle>

    <vehicle id="15" depart="101.00" arrival="500.00">
        <route edges="a74 a72[1] a69 a161 a122 a1b a1 a204a[0] a124 b12 b50[0] b50[1] b50[1]a a181 a18 a17 a71 b2[0] b2[1][0] b2[1][1][0] b2[1][1][1] b2[1][1][1]b"/>
    </vehicle>

    <vehicle id="16" depart="105.00" arrival="506.00">
        <route edges="a74 a72[1] a69 a161 a122 a1b a1 a204a[0] a124 b12 b50[0] b50[1] b50[1]a a181 a18 a17 a71 b2[0] b2[1][0] b2[1][1][0] b2[1][1][1] b2[1][1][1]b"/>
    </vehicle>

    <vehicle id="22" depart="131.00" arrival="507.00">
        <route edges="a74 a72[1] a69 a161 a122 a1b a1 a204a[0] a124 b12 b50[0] b50[1] b50[1]a a181 a18 a17 a71 b2[0] b2[1][0] b2[1][1][0] b2[1][1][1] b2[1][1][1]b"/>
    </vehicle>

    <vehicle id="23" depart="144.00" arrival="507.00">
        <route edges="a74 a72[1] a69 a161 a122 a1b a1 a204a[0] a124 b12 b50[0] b50[1] b50[1]a a181 a18 a17 a71 b2[0] b2[1][0] b2[1][1][0] b2[1][1][1] b2[1][1][1]b"/>
    </vehicle>

    <vehicle id="24" depart="147.00" arrival="515.00">
        <route edges="a74 a72[1] a69 a161 a122 a1b a1 a204a[0] a124 b12 b50[0] b50[1] b50[1]a a181 a18 a17 a71 b2[0] b2[1][0] b2[1][1][0] b2[1][1][1] b2[1][1][1]b"/>
    </vehicle>

    <vehicle id="12" depart="83.00" arrival="524.00">
        <route edges="a16 a37 a36 a40 a153 a87[0] a20001+87[1][0] a87[1][1] am90 am91 a88 a187 a191 a17 a71 b38[0] b38[0]a b38[1][0] b38[1][1] b38[1][1]a b56[1][0] b56[1][1] b5[1][0]+66 b5[1][1][1] b8 b10"/>
    </vehicle>

    <vehicle id="5" depart="25.00" arrival="530.00">
        <route edges="a16 a37 a36 a40 a153 a87[0] a20001+87[1][0] a87[1][1] am90 am91 a88 a187 a191 a17 a71 b38[0] b38[0]a b38[1][0] b38[1][1] b38[1][1]a b56[1][0] b56[1][1] b5[1][0]+66 b5[1][1][1] b8 b10"/>
    </vehicle>

    <vehicle id="7" depart="45.00" arrival="532.00">
        <route edges="a16 a37 a36 a40 a153 a87[0] a20001+87[1][0] a87[1][1] am90 am91 a88 a187 a191 a17 a71 b38[0] b38[0]a b38[1][0] b38[1][1] b38[1][1]a b56[1][0] b56[1][1] b5[1][0]+66 b5[1][1][1] b8 b10"/>
    </vehicle>

    <vehicle id="35" depart="207.00" arrival="533.00">
        <route edges="a210 a43[0] a43[1] a201 a201c a204a[0] a124 b12 b56[0] b56[1][0] b56[1][1] b5[1][0]+66 b5[1][1][1] b8 b10"/>
    </vehicle>

    <vehicle id="34" depart="203.00" arrival="535.00">
        <route edges="a210 a43[0] a43[1] a201 a201c a204a[0] a124 b12 b56[0] b56[1][0] b56[1][1] b5[1][0]+66 b5[1][1][1] b8 b10"/>
    </vehicle>

    <vehicle id="42" depart="247.00" arrival="537.00">
        <route edges="a210 a43[0] a43[1] a201 a201c a204a[0] a124 b12 b56[0] b56[1][0] b56[1][1] b5[1][0]+66 b5[1][1][1] b8 b10"/>
    </vehicle>

    <vehicle id="48" depart="304.00" arrival="558.00">
        <route edges="a210 a43[0] a43[1] a201 a201c a204a[0] a124 b12 b56[0] b56[1][0] b56[1][1] b5[1][0]+66 b5[1][1][1] b8 b10"/>
    </vehicle>

    <vehicle id="49" depart="312.00" arrival="569.00">
        <route edges="a210 a43[0] a43[1] a201 a201c a204a[0] a124 b12 b56[0] b56[1][0] b56[1][1] b5[1][0]+66 b5[1][1][1] b8 b10"/>
    </vehicle>

    <vehicle id="33" depart="191.00" arrival="614.00">
        <route edges="a74 a72[1] a69 a161 a122 a1b a1 a204a[0] a124 b12 b50[0] b50[1] b50[1]a a181 a18 a17 a71 b2[0] b2[1][0] b2[1][1][0] b2[1][1][1] b2[1][1][1]b"/>
    </vehicle>

    <vehicle id="30" depart="170.00" arrival="615.00">
        <route edges="a74 a72[1] a69 a161 a122 a1b a1 a204a[0] a124 b12 b50[0] b50[1] b50[1]a a181 a18 a17 a71 b2[0] b2[1][0] b2[1][1][0] b2[1][1][1] b2[1][1][1]b"/>
    </vehicle>

    <vehicle id="40" depart="243.00" arrival="615.00">
        <route edges="a74 a72[1] a69 a161 a122 a1b a1 a204a[0] a124 b12 b50[0] b50[1] b50[1]a a181 a18 a17 a71 b2[0] b2[1][0] b2[1][1][0] b2[1][1][1] b2[1][1][1]b"/>
    </vehicle>

    <vehicle id="45" depart="278.00" arrival="617.00">
        <route edges="a74 a72[1] a69 a161 a122 a1b a1 a204a[0] a124 b12 b50[0] b50[1] b50[1]a a181 a18 a17 a71 b2[0] b2[1][0] b2[1][1][0] b2[1][1][1] b2[1][1][1]b"/>
    </vehicle>

    <vehicle id="43" depart="262.00" arrival="619.00">
        <route edges="a74 a72[1] a69 a161 a122 a1b a1 a204a[0] a124 b12 b50[0] b50[1] b50[1]a a181 a18 a17 a71 b2[0] b2[1][0] b2[1][1][0] b2[1][1][1] b2[1][1][1]b"/>
    </vehicle>

    <vehicle id="32" depart="180.00" arrival="620.00">
        <route edges="a74 a72[1] a69 a161 a122 a1b a1 a204a[0] a124 b12 b50[0] b50[1] b50[1]a a181 a18 a17 a71 b2[0] b2[1][0] b2[1][1][0] b2[1][1][1] b2[1][1][1]b"/>
    </vehicle>

    <vehicle id="44" depart="268.00" arrival="621.00">
        <route edges="a74 a72[1] a69 a161 a122 a1b a1 a204a[0] a124 b12 b50[0] b50[1] b50[1]a a181 a18 a17 a71 b2[0] b2[1][0] b2[1][1][0] b2[1][1][1] b2[1][1][1]b"/>
    </vehicle>

    <vehicle id="29" depart="167.00" arrival="627.00">
        <route edges="a74 a72[1] a69 a161 a122 a1b a1 a204a[0] a124 b12 b50[0] b50[1] b50[1]a a181 a18 a17 a71 b2[0] b2[1][0] b2[1][1][0] b2[1][1][1] b2[1][1][1]b"/>
    </vehicle>

    <vehicle id="39" depart="233.00" arrival="631.00">
        <route edges="a74 a72[1] a69 a161 a122 a1b a1 a204a[0] a124 b12 b50[0] b50[1] b50[1]a a181 a18 a17 a71 b2[0] b2[1][0] b2[1][1][0] b2[1][1][1] b2[1][1][1]b"/>
    </vehicle>

    <vehicle id="52" depart="333.00" arrival="657.00">
        <route edges="a210 a43[0] a43[1] a115 a110 a185 a92 a90 am91 a88 a187 a191 a17 a71 b38[0] b38[0]a b37 b26 b26.-170 b17[0] b17[1]"/>
    </vehicle>

    <vehicle id="26" depart="163.00" arrival="658.00">
        <route edges="a16 a37 a36 a40 a153 a87[0] a20001+87[1][0] a87[1][1] am90 am91 a88 a187 a191 a17 a71 b38[0] b38[0]a b38[1][0] b38[1][1] b38[1][1]a b56[1][0] b56[1][1] b5[1][0]+66 b5[1][1][1] b8 b10"/>
    </vehicle>

    <vehicle id="25" depart="160.00" arrival="661.00">
        <route edges="a16 a37 a36 a40 a153 a87[0] a20001+87[1][0] a87[1][1] am90 am91 a88 a187 a191 a17 a71 b38[0] b38[0]a b38[1][0] b38[1][1] b38[1][1]a b56[1][0] b56[1][1] b5[1][0]+66 b5[1][1][1] b8 b10"/>
    </vehicle>

    <vehicle id="27" depart="166.00" arrival="663.00">
        <route edges="a16 a37 a36 a40 a153 a87[0] a20001+87[1][0] a87[1][1] am90 am91 a88 a187 a191 a17 a71 b38[0] b38[0]a b38[1][0] b38[1][1] b38[1][1]a b56[1][0] b56[1][1] b5[1][0]+66 b5[1][1][1] b8 b10"/>
    </vehicle>

    <vehicle id="65" depart="407.00" arrival="676.00">
        <route edges="a210 a43[0] a43[1] a201 a201c a204a[0] a124 b12 b56[0] b56[1][0] b56[1][1] b5[1][0]+66 b5[1][1][1] b8 b10"/>
    </vehicle>

    <vehicle id="37" depart="226.00" arrival="698.00">
        <route edges="a16 a37 a36 a40 a153 a87[0] a20001+87[1][0] a87[1][1] am90 am91 a88 a187 a191 a17 a71 b38[0] b38[0]a b38[1][0] b38[1][1] b38[1][1]a b56[1][0] b56[1][1] b5[1][0]+66 b5[1][1][1] b8 b10"/>
    </vehicle>

    <vehicle id="51" depart="320.00" arrival="738.00">
        <route edges="a74 a72[1] a69 a161 a122 a1b a1 a204a[0] a124 b12 b50[0] b50[1] b50[1]a a181 a18 a17 a71 b2[0] b2[1][0] b2[1][1][0] b2[1][1][1] b2[1][1][1]b"/>
    </vehicle>

    <vehicle id="57" depart="352.00" arrival="739.00">
        <route edges="a74 a72[1] a69 a161 a122 a1b a1 a204a[0] a124 b12 b50[0] b50[1] b50[1]a a181 a18 a17 a71 b2[0] b2[1][0] b2[1][1][0] b2[1][1][1] b2[1][1][1]b"/>
    </vehicle>

    <vehicle id="46" depart="281.00" arrival="743.00">
        <route edges="a74 a72[1] a69 a161 a122 a1b a1 a204a[0] a124 b12 b50[0] b50[1] b50[1]a a181 a18 a17 a71 b2[0] b2[1][0] b2[1][1][0] b2[1][1][1] b2[1][1][1]b"/>
    </vehicle>

    <vehicle id="53" depart="335.00" arrival="743.00">
        <route edges="a74 a72[1] a69 a161 a122 a1b a1 a204a[0] a124 b12 b50[0] b50[1] b50[1]a a181 a18 a17 a71 b2[0] b2[1][0] b2[1][1][0] b2[1][1][1] b2[1][1][1]b"/>
    </vehicle>

    <vehicle id="58" depart="356.00" arrival="745.00">
        <route edges="a74 a72[1] a69 a161 a122 a1b a1 a204a[0] a124 b12 b50[0] b50[1] b50[1]a a181 a18 a17 a71 b2[0] b2[1][0] b2[1][1][0] b2[1][1][1] b2[1][1][1]b"/>
    </vehicle>

    <vehicle id="61" depart="379.00" arrival="745.00">
        <route edges="a74 a72[1] a69 a161 a122 a1b a1 a204a[0] a124 b12 b50[0] b50[1] b50[1]a a181 a18 a17 a71 b2[0] b2[1][0] b2[1][1][0] b2[1][1][1] b2[1][1][1]b"/>
    </vehicle>

    <vehicle id="55" depart="341.00" arrival="747.00">
        <route edges="a74 a72[1] a69 a161 a122 a1b a1 a204a[0] a124 b12 b50[0] b50[1] b50[1]a a181 a18 a17 a71 b2[0] b2[1][0] b2[1][1][0] b2[1][1][1] b2[1][1][1]b"/>
    </vehicle>

    <vehicle id="54" depart="338.00" arrival="748.00">
        <route edges="a74 a72[1] a69 a161 a122 a1b a1 a204a[0] a124 b12 b50[0] b50[1] b50[1]a a181 a18 a17 a71 b2[0] b2[1][0] b2[1][1][0] b2[1][1][1] b2[1][1][1]b"/>
    </vehicle>

    <vehicle id="50" depart="314.00" arrival="762.00">
        <route edges="a74 a72[1] a69 a161 a122 a1b a1 a204a[0] a124 b12 b50[0] b50[1] b50[1]a a181 a18 a17 a71 b2[0] b2[1][0] b2[1][1][0] b2[1][1][1] b2[1][1][1]b"/>
    </vehicle>

    <vehicle id="62" depart="383.00" arrival="768.00">
        <route edges="a210 a43[0] a43[1] a115 a110 a185 a92 a90 am91 a88 a187 a191 a17 a71 b38[0] b38[0]a b37 b26 b26.-170 b17[0] b17[1]"/>
    </vehicle>

    <vehicle id="63" depart="399.00" arrival="771.00">
        <route edges="a210 a43[0] a43[1] a115 a110 a185 a92 a90 am91 a88 a187 a191 a17 a71 b38[0] b38[0]a b37 b26 b26.-170 b17[0] b17[1]"/>
    </vehicle>

    <vehicle id="64" depart="403.00" arrival="776.00">
        <route edges="a210 a43[0] a43[1] a115 a110 a185 a92 a90 am91 a88 a187 a191 a17 a71 b38[0] b38[0]a b37 b26 b26.-170 b17[0] b17[1]"/>
    </vehicle>

    <vehicle id="73" depart="461.00" arrival="777.00">
        <route edges="a210 a43[0] a43[1] a115 a110 a185 a92 a90 am91 a88 a187 a191 a17 a71 b38[0] b38[0]a b37 b26 b26.-170 b17[0] b17[1]"/>
    </vehicle>

    <vehicle id="75" depart="468.00" arrival="780.00">
        <route edges="a210 a43[0] a43[1] a115 a110 a185 a92 a90 am91 a88 a187 a191 a17 a71 b38[0] b38[0]a b37 b26 b26.-170 b17[0] b17[1]"/>
    </vehicle>

    <vehicle id="38" depart="233.00" arrival="782.00">
        <route edges="a16 a37 a36 a40 a153 a87[0] a20001+87[1][0] a87[1][1] am90 am91 a88 a187 a191 a17 a71 b38[0] b38[0]a b38[1][0] b38[1][1] b38[1][1]a b56[1][0] b56[1][1] b5[1][0]+66 b5[1][1][1] b8 b10"/>
    </vehicle>

    <vehicle id="36" depart="213.00" arrival="786.00">
        <route edges="a16 a37 a36 a40 a153 a87[0] a20001+87[1][0] a87[1][1] am90 am91 a88 a187 a191 a17 a71 b38[0] b38[0]a b38[1][0] b38[1][1] b38[1][1]a b56[1][0] b56[1][1] b5[1][0]+66 b5[1][1][1] b8 b10"/>
    </vehicle>

    <vehicle id="41" depart="247.00" arrival="788.00">
        <route edges="a16 a37 a36 a40 a153 a87[0] a20001+87[1][0] a87[1][1] am90 am91 a88 a187 a191 a17 a71 b38[0] b38[0]a b38[1][0] b38[1][1] b38[1][1]a b56[1][0] b56[1][1] b5[1][0]+66 b5[1][1][1] b8 b10"/>
    </vehicle>

    <vehicle id="47" depart="296.00" arrival="791.00">
        <route edges="a16 a37 a36 a40 a153 a87[0] a20001+87[1][0] a87[1][1] am90 am91 a88 a187 a191 a17 a71 b38[0] b38[0]a b38[1][0] b38[1][1] b38[1][1]a b56[1][0] b56[1][1] b5[1][0]+66 b5[1][1][1] b8 b10"/>
    </vehicle>

    <vehicle id="56" depart="339.00" arrival="793.00">
        <route edges="a16 a37 a36 a40 a153 a87[0] a20001+87[1][0] a87[1][1] am90 am91 a88 a187 a191 a17 a71 b38[0] b38[0]a b38[1][0] b38[1][1] b38[1][1]a b56[1][0] b56[1][1] b5[1][0]+66 b5[1][1][1] b8 b10"/>
    </vehicle>

    <vehicle id="70" depart="441.00" arrival="795.00">
        <route edges="a210 a43[0] a43[1] a201 a201c a204a[0] a124 b12 b56[0] b56[1][0] b56[1][1] b5[1][0]+66 b5[1][1][1] b8 b10"/>
    </vehicle>

    <vehicle id="60" depart="375.00" arrival="810.00">
        <route edges="a16 a37 a36 a40 a153 a87[0] a20001+87[1][0] a87[1][1] am90 am91 a88 a187 a191 a17 a71 b38[0] b38[0]a b38[1][0] b38[1][1] b38[1][1]a b56[1][0] b56[1][1] b5[1][0]+66 b5[1][1][1] b8 b10"/>
    </vehicle>

    <vehicle id="59" depart="365.00" arrival="816.00">
        <route edges="a16 a37 a36 a40 a153 a87[0] a20001+87[1][0] a87[1][1] am90 am91 a88 a187 a191 a17 a71 b38[0] b38[0]a b38[1][0] b38[1][1] b38[1][1]a b56[1][0] b56[1][1] b5[1][0]+66 b5[1][1][1] b8 b10"/>
    </vehicle>

    <vehicle id="79" depart="497.00" arrival="866.00">
        <route edges="a74 a72[1] a69 a161 a122 a1b a1 a204a[0] a124 b12 b50[0] b50[1] b50[1]a a181 a18 a17 a71 b2[0] b2[1][0] b2[1][1][0] b2[1][1][1] b2[1][1][1]b"/>
    </vehicle>

    <vehicle id="69" depart="441.00" arrival="867.00">
        <route edges="a74 a72[1] a69 a161 a122 a1b a1 a204a[0] a124 b12 b50[0] b50[1] b50[1]a a181 a18 a17 a71 b2[0] b2[1][0] b2[1][1][0] b2[1][1][1] b2[1][1][1]b"/>
    </vehicle>

    <vehicle id="80" depart="500.00" arrival="868.00">
        <route edges="a74 a72[1] a69 a161 a122 a1b a1 a204a[0] a124 b12 b50[0] b50[1] b50[1]a a181 a18 a17 a71 b2[0] b2[1][0] b2[1][1][0] b2[1][1][1] b2[1][1][1]b"/>
    </vehicle>

    <vehicle id="68" depart="433.00" arrival="869.00">
        <route edges="a74 a72[1] a69 a161 a122 a1b a1 a204a[0] a124 b12 b50[0] b50[1] b50[1]a a181 a18 a17 a71 b2[0] b2[1][0] b2[1][1][0] b2[1][1][1] b2[1][1][1]b"/>
    </vehicle>

    <vehicle id="77" depart="475.00" arrival="870.00">
        <route edges="a74 a72[1] a69 a161 a122 a1b a1 a204a[0] a124 b12 b50[0] b50[1] b50[1]a a181 a18 a17 a71 b2[0] b2[1][0] b2[1][1][0] b2[1][1][1] b2[1][1][1]b"/>
    </vehicle>

    <vehicle id="81" depart="508.00" arrival="872.00">
        <route edges="a74 a72[1] a69 a161 a122 a1b a1 a204a[0] a124 b12 b50[0] b50[1] b50[1]a a181 a18 a17 a71 b2[0] b2[1][0] b2[1][1][0] b2[1][1][1] b2[1][1][1]b"/>
    </vehicle>

    <vehicle id="83" depart="537.00" arrival="872.00">
        <route edges="a74 a72[1] a69 a161 a122 a1b a1 a204a[0] a124 b12 b50[0] b50[1] b50[1]a a181 a18 a17 a71 b2[0] b2[1][0] b2[1][1][0] b2[1][1][1] b2[1][1][1]b"/>
    </vehicle>

    <vehicle id="72" depart="459.00" arrival="873.00">
        <route edges="a74 a72[1] a69 a161 a122 a1b a1 a204a[0] a124 b12 b50[0] b50[1] b50[1]a a181 a18 a17 a71 b2[0] b2[1][0] b2[1][1][0] b2[1][1][1] b2[1][1][1]b"/>
    </vehicle>

    <vehicle id="71" depart="455.00" arrival="874.00">
        <route edges="a74 a72[1] a69 a161 a122 a1b a1 a204a[0] a124 b12 b50[0] b50[1] b50[1]a a181 a18 a17 a71 b2[0] b2[1][0] b2[1][1][0] b2[1][1][1] b2[1][1][1]b"/>
    </vehicle>

    <vehicle id="82" depart="522.00" arrival="875.00">
        <route edges="a74 a72[1] a69 a161 a122 a1b a1 a204a[0] a124 b12 b50[0] b50[1] b50[1]a a181 a18 a17 a71 b2[0] b2[1][0] b2[1][1][0] b2[1][1][1] b2[1][1][1]b"/>
    </vehicle>

    <vehicle id="66" depart="417.00" arrival="877.00">
        <route edges="a74 a72[1] a69 a161 a122 a1b a1 a204a[0] a124 b12 b50[0] b50[1] b50[1]a a181 a18 a17 a71 b2[0] b2[1][0] b2[1][1][0] b2[1][1][1] b2[1][1][1]b"/>
    </vehicle>

    <vehicle id="74" depart="464.00" arrival="879.00">
        <route edges="a74 a72[1] a69 a161 a122 a1b a1 a204a[0] a124 b12 b50[0] b50[1] b50[1]a a181 a18 a17 a71 b2[0] b2[1][0] b2[1][1][0] b2[1][1][1] b2[1][1][1]b"/>
    </vehicle>

    <vehicle id="67" depart="424.00" arrival="880.00">
        <route edges="a74 a72[1] a69 a161 a122 a1b a1 a204a[0] a124 b12 b50[0] b50[1] b50[1]a a181 a18 a17 a71 b2[0] b2[1][0] b2[1][1][0] b2[1][1][1] b2[1][1][1]b"/>
    </vehicle>

    <vehicle id="78" depart="496.00" arrival="892.00">
        <route edges="a210 a43[0] a43[1] a115 a110 a185 a92 a90 am91 a88 a187 a191 a17 a71 b38[0] b38[0]a b37 b26 b26.-170 b17[0] b17[1]"/>
    </vehicle>

    <vehicle id="76" depart="473.00" arrival="909.00">
        <route edges="a16 a37 a36 a40 a153 a87[0] a20001+87[1][0] a87[1][1] am90 am91 a88 a187 a191 a17 a71 b38[0] b38[0]a b38[1][0] b38[1][1] b38[1][1]a b56[1][0] b56[1][1] b5[1][0]+66 b5[1][1][1] b8 b10"/>
    </vehicle>

    <vehicle id="84" depart="556.00" arrival="922.00">
        <route edges="a16 a37 a36 a40 a153 a87[0] a20001+87[1][0] a87[1][1] am90 am91 a88 a187 a191 a17 a71 b38[0] b38[0]a b38[1][0] b38[1][1] b38[1][1]a b56[1][0] b56[1][1] b5[1][0]+66 b5[1][1][1] b8 b10"/>
    </vehicle>

    <vehicle id="86" depart="582.00" arrival="934.00">
        <route edges="a16 a37 a36 a40 a153 a87[0] a20001+87[1][0] a87[1][1] am90 am91 a88 a187 a191 a17 a71 b38[0] b38[0]a b38[1][0] b38[1][1] b38[1][1]a b56[1][0] b56[1][1] b5[1][0]+66 b5[1][1][1] b8 b10"/>
    </vehicle>

    <vehicle id="89" depart="596.00" arrival="936.00">
        <route edges="a16 a37 a36 a40 a153 a87[0] a20001+87[1][0] a87[1][1] am90 am91 a88 a187 a191 a17 a71 b38[0] b38[0]a b38[1][0] b38[1][1] b38[1][1]a b56[1][0] b56[1][1] b5[1][0]+66 b5[1][1][1] b8 b10"/>
    </vehicle>

    <vehicle id="87" depart="594.00" arrival="992.00">
        <route edges="a74 a72[1] a69 a161 a122 a1b a1 a204a[0] a124 b12 b50[0] b50[1] b50[1]a a181 a18 a17 a71 b2[0] b2[1][0] b2[1][1][0] b2[1][1][1] b2[1][1][1]b"/>
    </vehicle>

    <vehicle id="100" depart="642.00" arrival="992.00">
        <route edges="a74 a72[1] a69 a161 a122 a1b a1 a204a[0] a124 b12 b50[0] b50[1] b50[1]a a181 a18 a17 a71 b2[0] b2[1][0] b2[1][1][0] b2[1][1][1] b2[1][1][1]b"/>
    </vehicle>

    <vehicle id="85" depart="563.00" arrival="993.00">
        <route edges="a74 a72[1] a69 a161 a122 a1b a1 a204a[0] a124 b12 b50[0] b50[1] b50[1]a a181 a18 a17 a71 b2[0] b2[1][0] b2[1][1][0] b2[1][1][1] b2[1][1][1]b"/>
    </vehicle>

    <vehicle id="95" depart="612.00" arrival="994.00">
        <route edges="a74 a72[1] a69 a161 a122 a1b a1 a204a[0] a124 b12 b50[0] b50[1] b50[1]a a181 a18 a17 a71 b2[0] b2[1][0] b2[1][1][0] b2[1][1][1] b2[1][1][1]b"/>
    </vehicle>

    <vehicle id="94" depart="609.00" arrival="995.00">
        <route edges="a74 a72[1] a69 a161 a122 a1b a1 a204a[0] a124 b12 b50[0] b50[1] b50[1]a a181 a18 a17 a71 b2[0] b2[1][0] b2[1][1][0] b2[1][1][1] b2[1][1][1]b"/>
    </vehicle>

    <vehicle id="101" depart="645.00" arrival="996.00">
        <route edges="a74 a72[1] a69 a161 a122 a1b a1 a204a[0] a124 b12 b50[0] b50[1] b50[1]a a181 a18 a17 a71 b2[0] b2[1][0] b2[1][1][0] b2[1][1][1] b2[1][1][1]b"/>
    </vehicle>

    <vehicle id="90" depart="600.00" arrival="998.00">
        <route edges="a74 a72[1] a69 a161 a122 a1b a1 a204a[0] a124 b12 b50[0] b50[1] b50[1]a a181 a18 a17 a71 b2[0] b2[1][0] b2[1][1][0] b2[1][1][1] b2[1][1][1]b"/>
    </vehicle>

    <vehicle id="102" depart="653.00" arrival="998.00">
        <route edges="a74 a72[1] a69 a161 a122 a1b a1 a204a[0] a124 b12 b50[0] b50[1] b50[1]a a181 a18 a17 a71 b2[0] b2[1][0] b2[1][1][0] b2[1][1][1] b2[1][1][1]b"/>
    </vehicle>

    <vehicle id="91" depart="603.00" arrival="1004.00">
        <route edges="a74 a72[1] a69 a161 a122 a1b a1 a204a[0] a124 b12 b50[0] b50[1] b50[1]a a181 a18 a17 a71 b2[0] b2[1][0] b2[1][1][0] b2[1][1][1] b2[1][1][1]b"/>
    </vehicle>

    <vehicle id="93" depart="606.00" arrival="1004.00">
        <route edges="a74 a72[1] a69 a161 a122 a1b a1 a204a[0] a124 b12 b50[0] b50[1] b50[1]a a181 a18 a17 a71 b2[0] b2[1][0] b2[1][1][0] b2[1][1][1] b2[1][1][1]b"/>
    </vehicle>

    <vehicle id="88" depart="597.00" arrival="1005.00">
        <route edges="a74 a72[1] a69 a161 a122 a1b a1 a204a[0] a124 b12 b50[0] b50[1] b50[1]a a181 a18 a17 a71 b2[0] b2[1][0] b2[1][1][0] b2[1][1][1] b2[1][1][1]b"/>
    </vehicle>

    <vehicle id="97" depart="615.00" arrival="1026.00">
        <route edges="a210 a43[0] a43[1] a115 a110 a185 a92 a90 am91 a88 a187 a191 a17 a71 b38[0] b38[0]a b37 b26 b26.-170 b17[0] b17[1]"/>
    </vehicle>

    <vehicle id="98" depart="619.00" arrival="1028.00">
        <route edges="a210 a43[0] a43[1] a115 a110 a185 a92 a90 am91 a88 a187 a191 a17 a71 b38[0] b38[0]a b37 b26 b26.-170 b17[0] b17[1]"/>
    </vehicle>

    <vehicle id="109" depart="731.00" arrival="1030.00">
        <route edges="a210 a43[0] a43[1] a115 a110 a185 a92 a90 am91 a88 a187 a191 a17 a71 b38[0] b38[0]a b37 b26 b26.-170 b17[0] b17[1]"/>
    </vehicle>

    <vehicle id="92" depart="601.00" arrival="1040.00">
        <route edges="a16 a37 a36 a40 a153 a87[0] a20001+87[1][0] a87[1][1] am90 am91 a88 a187 a191 a17 a71 b38[0] b38[0]a b38[1][0] b38[1][1] b38[1][1]a b56[1][0] b56[1][1] b5[1][0]+66 b5[1][1][1] b8 b10"/>
    </vehicle>

    <vehicle id="99" depart="625.00" arrival="1051.00">
        <route edges="a16 a37 a36 a40 a153 a87[0] a20001+87[1][0] a87[1][1] am90 am91 a88 a187 a191 a17 a71 b38[0] b38[0]a b38[1][0] b38[1][1] b38[1][1]a b56[1][0] b56[1][1] b5[1][0]+66 b5[1][1][1] b8 b10"/>
    </vehicle>

    <vehicle id="96" depart="609.00" arrival="1056.00">
        <route edges="a16 a37 a36 a40 a153 a87[0] a20001+87[1][0] a87[1][1] am90 am91 a88 a187 a191 a17 a71 b38[0] b38[0]a b38[1][0] b38[1][1] b38[1][1]a b56[1][0] b56[1][1] b5[1][0]+66 b5[1][1][1] b8 b10"/>
    </vehicle>

    <vehicle id="116" depart="787.00" arrival="1114.00">
        <route edges="a74 a72[1] a69 a161 a122 a1b a1 a204a[0] a124 b12 b50[0] b50[1] b50[1]a a181 a18 a17 a71 b2[0] b2[1][0] b2[1][1][0] b2[1][1][1] b2[1][1][1]b"/>
    </vehicle>

    <vehicle id="105" depart="689.00" arrival="1116.00">
        <route edges="a74 a72[1] a69 a161 a122 a1b a1 a204a[0] a124 b12 b50[0] b50[1] b50[1]a a181 a18 a17 a71 b2[0] b2[1][0] b2[1][1][0] b2[1][1][1] b2[1][1][1]b"/>
    </vehicle>

    <vehicle id="107" depart="705.00" arrival="1117.00">
        <route edges="a74 a72[1] a69 a161 a122 a1b a1 a204a[0] a124 b12 b50[0] b50[1] b50[1]a a181 a18 a17 a71 b2[0] b2[1][0] b2[1][1][0] b2[1][1][1] b2[1][1][1]b"/>
    </vehicle>

    <vehicle id="121" depart="814.00" arrival="1117.00">
        <route edges="a74 a72[1] a69 a161 a122 a1b a1 a204a[0] a124 b12 b50[0] b50[1] b50[1]a a181 a18 a17 a71 b2[0] b2[1][0] b2[1][1][0] b2[1][1][1] b2[1][1][1]b"/>
    </vehicle>

    <vehicle id="108" depart="708.00" arrival="1118.00">
        <route edges="a74 a72[1] a69 a161 a122 a1b a1 a204a[0] a124 b12 b50[0] b50[1] b50[1]a a181 a18 a17 a71 b2[0] b2[1][0] b2[1][1][0] b2[1][1][1] b2[1][1][1]b"/>
    </vehicle>

    <vehicle id="113" depart="778.00" arrival="1122.00">
        <route edges="a74 a72[1] a69 a161 a122 a1b a1 a204a[0] a124 b12 b50[0] b50[1] b50[1]a a181 a18 a17 a71 b2[0] b2[1][0] b2[1][1][0] b2[1][1][1] b2[1][1][1]b"/>
    </vehicle>

    <vehicle id="104" depart="673.00" arrival="1123.00">
        <route edges="a74 a72[1] a69 a161 a122 a1b a1 a204a[0] a124 b12 b50[0] b50[1] b50[1]a a181 a18 a17 a71 b2[0] b2[1][0] b2[1][1][0] b2[1][1][1] b2[1][1][1]b"/>
    </vehicle>

    <vehicle id="120" depart="812.00" arrival="1150.00">
        <route edges="a210 a43[0] a43[1] a115 a110 a185 a92 a90 am91 a88 a187 a191 a17 a71 b38[0] b38[0]a b37 b26 b26.-170 b17[0] b17[1]"/>
    </vehicle>

    <vehicle id="122" depart="815.00" arrival="1152.00">
        <route edges="a210 a43[0] a43[1] a115 a110 a185 a92 a90 am91 a88 a187 a191 a17 a71 b38[0] b38[0]a b37 b26 b26.-170 b17[0] b17[1]"/>
    </vehicle>

    <vehicle id="126" depart="821.00" arrival="1154.00">
        <route edges="a210 a43[0] a43[1] a115 a110 a185 a92 a90 am91 a88 a187 a191 a17 a71 b38[0] b38[0]a b37 b26 b26.-170 b17[0] b17[1]"/>
    </vehicle>

    <vehicle id="129" depart="844.00" arrival="1155.00">
        <route edges="a210 a43[0] a43[1] a115 a110 a185 a92 a90 am91 a88 a187 a191 a17 a71 b38[0] b38[0]a b37 b26 b26.-170 b17[0] b17[1]"/>
    </vehicle>

    <vehicle id="106" depart="689.00" arrival="1163.00">
        <route edges="a16 a37 a36 a40 a153 a87[0] a20001+87[1][0] a87[1][1] am90 am91 a88 a187 a191 a17 a71 b38[0] b38[0]a b38[1][0] b38[1][1] b38[1][1]a b56[1][0] b56[1][1] b5[1][0]+66 b5[1][1][1] b8 b10"/>
    </vehicle>

    <vehicle id="103" depart="659.00" arrival="1165.00">
        <route edges="a16 a37 a36 a40 a153 a87[0] a20001+87[1][0] a87[1][1] am90 am91 a88 a187 a191 a17 a71 b38[0] b38[0]a b38[1][0] b38[1][1] b38[1][1]a b56[1][0] b56[1][1] b5[1][0]+66 b5[1][1][1] b8 b10"/>
    </vehicle>

    <vehicle id="124" depart="818.00" arrival="1167.00">
        <route edges="a210 a43[0] a43[1] a201 a201c a204a[0] a124 b12 b56[0] b56[1][0] b56[1][1] b5[1][0]+66 b5[1][1][1] b8 b10"/>
    </vehicle>

    <vehicle id="112" depart="776.00" arrival="1171.00">
        <route edges="a16 a37 a36 a40 a153 a87[0] a20001+87[1][0] a87[1][1] am90 am91 a88 a187 a191 a17 a71 b38[0] b38[0]a b38[1][0] b38[1][1] b38[1][1]a b56[1][0] b56[1][1] b5[1][0]+66 b5[1][1][1] b8 b10"/>
    </vehicle>
