<?xml version="1.0" encoding="UTF-8"?>

<!-- generated on 2025-03-21 18:01:42 by Eclipse SUMO sumo Version 1.21.0
<sumoConfiguration xmlns:xsi="http://www.w3.org/2001/XMLSchema-instance" xsi:noNamespaceSchemaLocation="http://sumo.dlr.de/xsd/sumoConfiguration.xsd">

    <input>
        <net-file value="${STATICPATH}/joined_lanes.net.xml"/>
        <route-files value="${SIMULATIONPATH}/generatedRoutes.rou.xml"/>
        <additional-files value="${STATICPATH}/detectors.add.xml,${STATICPATH}/joined_vtypes.add.xml,${STATICPATH}/joined_tls.add.xml"/>
    </input>

    <output>
        <fcd-output value="${SIMULATIONPATH}/fcd.xml"/>
        <queue-output value="${SIMULATIONPATH}/queue.xml"/>
        <summary-output value="${SIMULATIONPATH}/summary.xml"/>
        <tripinfo-output value="${SIMULATIONPATH}/tripinfos.xml"/>
        <vehroute-output value="${SIMULATIONPATH}/vehroute.xml"/>
        <save-state.prefix value="configs\state"/>
    </output>

    <processing>
        <ignore-junction-blocker value="1"/>
        <ignore-route-errors value="true"/>
        <time-to-teleport value="-1"/>
    </processing>

    <report>
        <log value="C:/Users/fabio/Desktop/sumo_log.txt"/>
        <no-step-log value="true"/>
    </report>

    <emissions>
        <phemlight-path value="configs\./PHEMlight/"/>
    </emissions>

    <traci_server>
        <remote-port value="60284"/>
    </traci_server>

</sumoConfiguration>
-->

<tripinfos xmlns:xsi="http://www.w3.org/2001/XMLSchema-instance" xsi:noNamespaceSchemaLocation="http://sumo.dlr.de/xsd/tripinfo_file.xsd">
    <tripinfo id="0" depart="5.00" departLane="a201_0" departPos="5.10" departSpeed="0.00" departDelay="0.55" arrival="253.00" arrivalLane="b2[1][1][1]b_0" arrivalPos="325.74" arrivalSpeed="13.74" duration="248.00" routeLength="2611.01" waitingTime="46.00" waitingCount="2" stopTime="0.00" timeLoss="68.79" rerouteNo="0" devices="vehroute_0 tripinfo_0 fcd_0" vType="DEFAULT_VEHTYPE" speedFactor="1.06" vaporized=""/>
    <tripinfo id="3" depart="83.00" departLane="a201_0" departPos="5.10" departSpeed="0.00" departDelay="0.58" arrival="362.00" arrivalLane="b2[1][1][1]b_0" arrivalPos="325.74" arrivalSpeed="14.67" duration="279.00" routeLength="2608.05" waitingTime="68.00" waitingCount="3" stopTime="0.00" timeLoss="103.25" rerouteNo="0" devices="vehroute_3 tripinfo_3 fcd_3" vType="DEFAULT_VEHTYPE" speedFactor="1.08" vaporized=""/>
    <tripinfo id="2" depart="73.00" departLane="a201_0" departPos="5.10" departSpeed="0.00" departDelay="0.91" arrival="369.00" arrivalLane="b2[1][1][1]b_1" arrivalPos="325.74" arrivalSpeed="13.59" duration="296.00" routeLength="2611.01" waitingTime="80.00" waitingCount="2" stopTime="0.00" timeLoss="108.35" rerouteNo="0" devices="vehroute_2 tripinfo_2 fcd_2" vType="DEFAULT_VEHTYPE" speedFactor="1.01" vaporized=""/>
    <tripinfo id="1" depart="57.00" departLane="a201_0" departPos="5.10" departSpeed="0.00" departDelay="0.04" arrival="370.00" arrivalLane="b2[1][1][1]b_0" arrivalPos="325.74" arrivalSpeed="11.78" duration="313.00" routeLength="2611.01" waitingTime="89.00" waitingCount="1" stopTime="0.00" timeLoss="111.23" rerouteNo="0" devices="vehroute_1 tripinfo_1 fcd_1" vType="DEFAULT_VEHTYPE" speedFactor="0.94" vaporized=""/>
    <tripinfo id="4" depart="189.00" departLane="a201_0" departPos="5.10" departSpeed="0.00" departDelay="0.58" arrival="487.00" arrivalLane="b2[1][1][1]b_0" arrivalPos="325.74" arrivalSpeed="13.77" duration="298.00" routeLength="2611.01" waitingTime="92.00" waitingCount="1" stopTime="0.00" timeLoss="113.15" rerouteNo="0" devices="vehroute_4 tripinfo_4 fcd_4" vType="DEFAULT_VEHTYPE" speedFactor="1.03" vaporized=""/>
    <tripinfo id="6" depart="228.00" departLane="a201_0" departPos="5.10" departSpeed="0.00" departDelay="0.81" arrival="621.00" arrivalLane="b2[1][1][1]b_0" arrivalPos="325.74" arrivalSpeed="13.50" duration="393.00" routeLength="2608.05" waitingTime="176.00" waitingCount="4" stopTime="0.00" timeLoss="211.10" rerouteNo="0" devices="vehroute_6 tripinfo_6 fcd_6" vType="DEFAULT_VEHTYPE" speedFactor="1.05" vaporized=""/>
    <tripinfo id="8" depart="320.00" departLane="a201_0" departPos="5.10" departSpeed="0.00" departDelay="0.44" arrival="624.00" arrivalLane="b2[1][1][1]b_0" arrivalPos="325.74" arrivalSpeed="11.73" duration="304.00" routeLength="2611.01" waitingTime="71.00" waitingCount="1" stopTime="0.00" timeLoss="100.45" rerouteNo="0" devices="vehroute_8 tripinfo_8 fcd_8" vType="DEFAULT_VEHTYPE" speedFactor="0.94" vaporized=""/>
    <tripinfo id="7" depart="252.00" departLane="a201_0" departPos="5.10" departSpeed="0.00" departDelay="0.25" arrival="627.00" arrivalLane="b2[1][1][1]b_0" arrivalPos="325.74" arrivalSpeed="11.76" duration="375.00" routeLength="2608.05" waitingTime="121.00" waitingCount="4" stopTime="0.00" timeLoss="160.91" rerouteNo="0" devices="vehroute_7 tripinfo_7 fcd_7" vType="DEFAULT_VEHTYPE" speedFactor="0.89" vaporized=""/>
    <tripinfo id="9" depart="335.00" departLane="a201_0" departPos="5.10" departSpeed="0.00" departDelay="0.46" arrival="627.00" arrivalLane="b2[1][1][1]b_1" arrivalPos="325.74" arrivalSpeed="11.82" duration="292.00" routeLength="2611.01" waitingTime="43.00" waitingCount="2" stopTime="0.00" timeLoss="70.86" rerouteNo="0" devices="vehroute_9 tripinfo_9 fcd_9" vType="DEFAULT_VEHTYPE" speedFactor="0.86" vaporized=""/>
    <tripinfo id="5" depart="211.00" departLane="a201_0" departPos="5.10" departSpeed="0.00" departDelay="0.56" arrival="630.00" arrivalLane="b2[1][1][1]b_0" arrivalPos="325.74" arrivalSpeed="10.26" duration="419.00" routeLength="2611.01" waitingTime="155.00" waitingCount="2" stopTime="0.00" timeLoss="190.78" rerouteNo="0" devices="vehroute_5 tripinfo_5 fcd_5" vType="DEFAULT_VEHTYPE" speedFactor="0.83" vaporized=""/>
    <tripinfo id="10" depart="424.00" departLane="a201_0" departPos="5.10" departSpeed="0.00" departDelay="0.46" arrival="745.00" arrivalLane="b2[1][1][1]b_0" arrivalPos="325.74" arrivalSpeed="14.08" duration="321.00" routeLength="2611.01" waitingTime="107.00" waitingCount="4" stopTime="0.00" timeLoss="147.20" rerouteNo="0" devices="vehroute_10 tripinfo_10 fcd_10" vType="DEFAULT_VEHTYPE" speedFactor="1.09" vaporized=""/>
    <tripinfo id="11" depart="432.00" departLane="a201_0" departPos="5.10" departSpeed="0.00" departDelay="0.62" arrival="746.00" arrivalLane="b2[1][1][1]b_0" arrivalPos="325.74" arrivalSpeed="13.11" duration="314.00" routeLength="2608.05" waitingTime="91.00" waitingCount="5" stopTime="0.00" timeLoss="129.44" rerouteNo="0" devices="vehroute_11 tripinfo_11 fcd_11" vType="DEFAULT_VEHTYPE" speedFactor="1.03" vaporized=""/>
    <tripinfo id="13" depart="512.00" departLane="a201_0" departPos="5.10" departSpeed="0.00" departDelay="1.61" arrival="869.00" arrivalLane="b2[1][1][1]b_0" arrivalPos="325.74" arrivalSpeed="14.63" duration="357.00" routeLength="2608.05" waitingTime="147.00" waitingCount="4" stopTime="0.00" timeLoss="187.81" rerouteNo="0" devices="vehroute_13 tripinfo_13 fcd_13" vType="DEFAULT_VEHTYPE" speedFactor="1.12" vaporized=""/>
    <tripinfo id="12" depart="509.00" departLane="a201_0" departPos="5.10" departSpeed="0.00" departDelay="0.40" arrival="871.00" arrivalLane="b2[1][1][1]b_0" arrivalPos="325.74" arrivalSpeed="13.85" duration="362.00" routeLength="2611.01" waitingTime="145.00" waitingCount="4" stopTime="0.00" timeLoss="180.21" rerouteNo="0" devices="vehroute_12 tripinfo_12 fcd_12" vType="DEFAULT_VEHTYPE" speedFactor="1.05" vaporized=""/>
    <tripinfo id="14" depart="554.00" departLane="a201_0" departPos="5.10" departSpeed="0.00" departDelay="0.35" arrival="874.00" arrivalLane="b2[1][1][1]b_0" arrivalPos="325.74" arrivalSpeed="13.43" duration="320.00" routeLength="2611.01" waitingTime="89.00" waitingCount="3" stopTime="0.00" timeLoss="128.76" rerouteNo="0" devices="vehroute_14 tripinfo_14 fcd_14" vType="DEFAULT_VEHTYPE" speedFactor="0.99" vaporized=""/>
    <tripinfo id="17" depart="614.00" departLane="a201_0" departPos="5.10" departSpeed="0.00" departDelay="0.28" arrival="874.00" arrivalLane="b2[1][1][1]b_1" arrivalPos="325.74" arrivalSpeed="12.41" duration="260.00" routeLength="2611.01" waitingTime="33.00" waitingCount="2" stopTime="0.00" timeLoss="58.23" rerouteNo="0" devices="vehroute_17 tripinfo_17 fcd_17" vType="DEFAULT_VEHTYPE" speedFactor="0.94" vaporized=""/>
    <tripinfo id="16" depart="583.00" departLane="a201_0" departPos="5.10" departSpeed="0.00" departDelay="0.65" arrival="878.00" arrivalLane="b2[1][1][1]b_0" arrivalPos="325.74" arrivalSpeed="11.56" duration="295.00" routeLength="2608.05" waitingTime="43.00" waitingCount="3" stopTime="0.00" timeLoss="79.06" rerouteNo="0" devices="vehroute_16 tripinfo_16 fcd_16" vType="DEFAULT_VEHTYPE" speedFactor="0.88" vaporized=""/>
    <tripinfo id="15" depart="574.00" departLane="a201_0" departPos="5.10" departSpeed="0.00" departDelay="0.51" arrival="879.00" arrivalLane="b2[1][1][1]b_1" arrivalPos="325.74" arrivalSpeed="12.46" duration="305.00" routeLength="2611.01" waitingTime="55.00" waitingCount="4" stopTime="0.00" timeLoss="99.91" rerouteNo="0" devices="vehroute_15 tripinfo_15 fcd_15" vType="DEFAULT_VEHTYPE" speedFactor="0.93" vaporized=""/>
    <tripinfo id="18" depart="686.00" departLane="a201_0" departPos="5.10" departSpeed="0.00" departDelay="0.83" arrival="999.00" arrivalLane="b2[1][1][1]b_0" arrivalPos="325.74" arrivalSpeed="12.47" duration="313.00" routeLength="2608.05" waitingTime="72.00" waitingCount="4" stopTime="0.00" timeLoss="110.45" rerouteNo="0" devices="vehroute_18 tripinfo_18 fcd_18" vType="DEFAULT_VEHTYPE" speedFactor="0.94" vaporized=""/>
    <tripinfo id="19" depart="764.00" departLane="a201_0" departPos="5.10" departSpeed="0.00" departDelay="0.86" arrival="1118.00" arrivalLane="b2[1][1][1]b_0" arrivalPos="325.74" arrivalSpeed="14.92" duration="354.00" routeLength="2611.01" waitingTime="148.00" waitingCount="5" stopTime="0.00" timeLoss="189.93" rerouteNo="0" devices="vehroute_19 tripinfo_19 fcd_19" vType="DEFAULT_VEHTYPE" speedFactor="1.16" vaporized=""/>
    <tripinfo id="20" depart="819.00" departLane="a201_0" departPos="5.10" departSpeed="0.00" departDelay="0.51" arrival="1121.00" arrivalLane="b2[1][1][1]b_0" arrivalPos="325.74" arrivalSpeed="14.09" duration="302.00" routeLength="2608.05" waitingTime="81.00" waitingCount="4" stopTime="0.00" timeLoss="115.85" rerouteNo="0" devices="vehroute_20 tripinfo_20 fcd_20" vType="DEFAULT_VEHTYPE" speedFactor="1.02" vaporized=""/>
    <tripinfo id="22" depart="861.00" departLane="a201_0" departPos="5.10" departSpeed="0.00" departDelay="0.40" arrival="1122.00" arrivalLane="b2[1][1][1]b_1" arrivalPos="325.74" arrivalSpeed="13.07" duration="261.00" routeLength="2611.01" waitingTime="24.00" waitingCount="3" stopTime="0.00" timeLoss="66.59" rerouteNo="0" devices="vehroute_22 tripinfo_22 fcd_22" vType="DEFAULT_VEHTYPE" speedFactor="0.97" vaporized=""/>
    <tripinfo id="21" depart="831.00" departLane="a201_0" departPos="5.10" departSpeed="0.00" departDelay="0.01" arrival="1124.00" arrivalLane="b2[1][1][1]b_0" arrivalPos="325.74" arrivalSpeed="13.04" duration="293.00" routeLength="2608.05" waitingTime="65.00" waitingCount="4" stopTime="0.00" timeLoss="104.77" rerouteNo="0" devices="vehroute_21 tripinfo_21 fcd_21" vType="DEFAULT_VEHTYPE" speedFactor="1.01" vaporized=""/>
    <tripinfo id="23" depart="878.00" departLane="a201_0" departPos="5.10" departSpeed="0.00" departDelay="0.84" arrival="1128.00" arrivalLane="b2[1][1][1]b_0" arrivalPos="325.74" arrivalSpeed="12.26" duration="250.00" routeLength="2611.01" waitingTime="7.00" waitingCount="2" stopTime="0.00" timeLoss="36.40" rerouteNo="0" devices="vehroute_23 tripinfo_23 fcd_23" vType="DEFAULT_VEHTYPE" speedFactor="0.89" vaporized=""/>
    <tripinfo id="25" depart="928.00" departLane="a201_0" departPos="5.10" departSpeed="0.00" departDelay="2.63" arrival="1264.00" arrivalLane="b2[1][1][1]b_0" arrivalPos="325.74" arrivalSpeed="11.68" duration="336.00" routeLength="2611.01" waitingTime="84.00" waitingCount="4" stopTime="0.00" timeLoss="118.21" rerouteNo="0" devices="vehroute_25 tripinfo_25 fcd_25" vType="DEFAULT_VEHTYPE" speedFactor="0.87" vaporized=""/>
    <tripinfo id="28" depart="989.00" departLane="a201_0" departPos="5.10" departSpeed="0.00" departDelay="0.66" arrival="1343.00" arrivalLane="b2[1][1][1]b_0" arrivalPos="325.74" arrivalSpeed="14.73" duration="354.00" routeLength="2608.05" waitingTime="113.00" waitingCount="3" stopTime="0.00" timeLoss="186.86" rerouteNo="0" devices="vehroute_28 tripinfo_28 fcd_28" vType="DEFAULT_VEHTYPE" speedFactor="1.13" vaporized=""/>
    <tripinfo id="31" depart="1162.00" departLane="a201_0" departPos="5.10" departSpeed="0.00" departDelay="0.90" arrival="1382.00" arrivalLane="b2[1][1][1]b_1" arrivalPos="325.74" arrivalSpeed="15.79" duration="220.00" routeLength="2611.01" waitingTime="30.00" waitingCount="1" stopTime="0.00" timeLoss="55.57" rerouteNo="0" devices="vehroute_31 tripinfo_31 fcd_31" vType="DEFAULT_VEHTYPE" speedFactor="1.15" vaporized=""/>
    <tripinfo id="30" depart="1084.00" departLane="a201_0" departPos="5.10" departSpeed="0.00" departDelay="0.93" arrival="1383.00" arrivalLane="b2[1][1][1]b_2" arrivalPos="325.74" arrivalSpeed="16.03" duration="299.00" routeLength="2608.05" waitingTime="80.00" waitingCount="6" stopTime="0.00" timeLoss="138.45" rerouteNo="0" devices="vehroute_30 tripinfo_30 fcd_30" vType="DEFAULT_VEHTYPE" speedFactor="1.18" vaporized=""/>
    <tripinfo id="27" depart="977.00" departLane="a201_0" departPos="5.10" departSpeed="0.00" departDelay="0.87" arrival="1387.00" arrivalLane="b2[1][1][1]b_0" arrivalPos="325.74" arrivalSpeed="12.67" duration="410.00" routeLength="2611.01" waitingTime="153.00" waitingCount="4" stopTime="0.00" timeLoss="209.94" rerouteNo="0" devices="vehroute_27 tripinfo_27 fcd_27" vType="DEFAULT_VEHTYPE" speedFactor="0.95" vaporized=""/>
    <tripinfo id="29" depart="1007.00" departLane="a201_0" departPos="5.10" departSpeed="0.00" departDelay="0.07" arrival="1388.00" arrivalLane="b2[1][1][1]b_0" arrivalPos="325.74" arrivalSpeed="11.98" duration="381.00" routeLength="2611.01" waitingTime="127.00" waitingCount="4" stopTime="0.00" timeLoss="176.20" rerouteNo="0" devices="vehroute_29 tripinfo_29 fcd_29" vType="DEFAULT_VEHTYPE" speedFactor="0.93" vaporized=""/>
    <tripinfo id="26" depart="954.00" departLane="a201_0" departPos="5.10" departSpeed="0.00" departDelay="0.38" arrival="1389.00" arrivalLane="b2[1][1][1]b_0" arrivalPos="325.74" arrivalSpeed="12.56" duration="435.00" routeLength="2608.05" waitingTime="168.00" waitingCount="4" stopTime="0.00" timeLoss="228.51" rerouteNo="0" devices="vehroute_26 tripinfo_26 fcd_26" vType="DEFAULT_VEHTYPE" speedFactor="0.92" vaporized=""/>
    <tripinfo id="24" depart="925.00" departLane="a201_0" departPos="5.10" departSpeed="0.00" departDelay="0.22" arrival="1394.00" arrivalLane="b2[1][1][1]b_0" arrivalPos="325.74" arrivalSpeed="11.18" duration="469.00" routeLength="2608.05" waitingTime="181.00" waitingCount="5" stopTime="0.00" timeLoss="238.60" rerouteNo="0" devices="vehroute_24 tripinfo_24 fcd_24" vType="DEFAULT_VEHTYPE" speedFactor="0.83" vaporized=""/>
    <tripinfo id="33" depart="1215.00" departLane="a201_0" departPos="5.10" departSpeed="0.00" departDelay="0.98" arrival="1585.00" arrivalLane="b2[1][1][1]b_0" arrivalPos="325.74" arrivalSpeed="15.86" duration="370.00" routeLength="2611.01" waitingTime="154.00" waitingCount="4" stopTime="0.00" timeLoss="208.16" rerouteNo="0" devices="vehroute_33 tripinfo_33 fcd_33" vType="DEFAULT_VEHTYPE" speedFactor="1.17" vaporized=""/>
    <tripinfo id="37" depart="1247.00" departLane="a201_0" departPos="5.10" departSpeed="0.00" departDelay="0.24" arrival="1588.00" arrivalLane="b2[1][1][1]b_1" arrivalPos="325.74" arrivalSpeed="15.14" duration="341.00" routeLength="2608.05" waitingTime="108.00" waitingCount="5" stopTime="0.00" timeLoss="180.34" rerouteNo="0" devices="vehroute_37 tripinfo_37 fcd_37" vType="DEFAULT_VEHTYPE" speedFactor="1.18" vaporized=""/>
    <tripinfo id="35" depart="1231.00" departLane="a201_0" departPos="5.10" departSpeed="0.00" departDelay="0.97" arrival="1595.00" arrivalLane="b2[1][1][1]b_0" arrivalPos="325.74" arrivalSpeed="13.15" duration="364.00" routeLength="2608.05" waitingTime="145.00" waitingCount="4" stopTime="0.00" timeLoss="178.38" rerouteNo="0" devices="vehroute_35 tripinfo_35 fcd_35" vType="DEFAULT_VEHTYPE" speedFactor="1.02" vaporized=""/>
    <tripinfo id="38" depart="1307.00" departLane="a201_0" departPos="5.10" departSpeed="0.00" departDelay="0.40" arrival="1597.00" arrivalLane="b2[1][1][1]b_2" arrivalPos="325.74" arrivalSpeed="15.28" duration="290.00" routeLength="2611.01" waitingTime="82.00" waitingCount="1" stopTime="0.00" timeLoss="117.66" rerouteNo="0" devices="vehroute_38 tripinfo_38 fcd_38" vType="DEFAULT_VEHTYPE" speedFactor="1.10" vaporized=""/>
    <tripinfo id="32" depart="1201.00" departLane="a201_0" departPos="5.10" departSpeed="0.00" departDelay="0.15" arrival="1598.00" arrivalLane="b2[1][1][1]b_0" arrivalPos="325.74" arrivalSpeed="13.23" duration="397.00" routeLength="2611.01" waitingTime="173.00" waitingCount="3" stopTime="0.00" timeLoss="208.09" rerouteNo="0" devices="vehroute_32 tripinfo_32 fcd_32" vType="DEFAULT_VEHTYPE" speedFactor="1.01" vaporized=""/>
    <tripinfo id="34" depart="1228.00" departLane="a201_0" departPos="5.10" departSpeed="0.00" departDelay="0.08" arrival="1598.00" arrivalLane="b2[1][1][1]b_1" arrivalPos="325.74" arrivalSpeed="12.55" duration="370.00" routeLength="2611.01" waitingTime="128.00" waitingCount="4" stopTime="0.00" timeLoss="178.49" rerouteNo="0" devices="vehroute_34 tripinfo_34 fcd_34" vType="DEFAULT_VEHTYPE" speedFactor="0.99" vaporized=""/>
    <tripinfo id="36" depart="1237.00" departLane="a201_0" departPos="5.10" departSpeed="0.00" departDelay="0.18" arrival="1602.00" arrivalLane="b2[1][1][1]b_0" arrivalPos="325.74" arrivalSpeed="13.06" duration="365.00" routeLength="2608.05" waitingTime="121.00" waitingCount="4" stopTime="0.00" timeLoss="169.57" rerouteNo="0" devices="vehroute_36 tripinfo_36 fcd_36" vType="DEFAULT_VEHTYPE" speedFactor="0.97" vaporized=""/>
    <tripinfo id="39" depart="1322.00" departLane="a201_0" departPos="5.10" departSpeed="0.00" departDelay="0.96" arrival="1609.00" arrivalLane="b2[1][1][1]b_0" arrivalPos="325.74" arrivalSpeed="11.45" duration="287.00" routeLength="2611.01" waitingTime="49.00" waitingCount="2" stopTime="0.00" timeLoss="75.84" rerouteNo="0" devices="vehroute_39 tripinfo_39 fcd_39" vType="DEFAULT_VEHTYPE" speedFactor="0.90" vaporized=""/>
    <tripinfo id="40" depart="1363.00" departLane="a201_0" departPos="5.10" departSpeed="0.00" departDelay="0.48" arrival="1716.00" arrivalLane="b2[1][1][1]b_1" arrivalPos="325.74" arrivalSpeed="13.44" duration="353.00" routeLength="2611.01" waitingTime="132.00" waitingCount="3" stopTime="0.00" timeLoss="168.70" rerouteNo="0" devices="vehroute_40 tripinfo_40 fcd_40" vType="DEFAULT_VEHTYPE" speedFactor="1.03" vaporized=""/>
    <tripinfo id="43" depart="1408.00" departLane="a201_0" departPos="5.10" departSpeed="0.00" departDelay="0.25" arrival="1716.00" arrivalLane="b2[1][1][1]b_0" arrivalPos="325.74" arrivalSpeed="13.90" duration="308.00" routeLength="2608.05" waitingTime="87.00" waitingCount="4" stopTime="0.00" timeLoss="125.34" rerouteNo="0" devices="vehroute_43 tripinfo_43 fcd_43" vType="DEFAULT_VEHTYPE" speedFactor="1.04" vaporized=""/>
    <tripinfo id="45" depart="1445.00" departLane="a201_0" departPos="5.10" departSpeed="0.00" departDelay="0.72" arrival="1717.00" arrivalLane="b2[1][1][1]b_2" arrivalPos="325.74" arrivalSpeed="14.71" duration="272.00" routeLength="2611.01" waitingTime="54.00" waitingCount="2" stopTime="0.00" timeLoss="97.54" rerouteNo="0" devices="vehroute_45 tripinfo_45 fcd_45" vType="DEFAULT_VEHTYPE" speedFactor="1.09" vaporized=""/>
    <tripinfo id="42" depart="1378.00" departLane="a201_0" departPos="5.10" departSpeed="0.00" departDelay="0.91" arrival="1718.00" arrivalLane="b2[1][1][1]b_0" arrivalPos="325.74" arrivalSpeed="14.75" duration="340.00" routeLength="2611.01" waitingTime="113.00" waitingCount="4" stopTime="0.00" timeLoss="166.11" rerouteNo="0" devices="vehroute_42 tripinfo_42 fcd_42" vType="DEFAULT_VEHTYPE" speedFactor="1.09" vaporized=""/>
    <tripinfo id="44" depart="1430.00" departLane="a201_0" departPos="5.10" departSpeed="0.00" departDelay="0.16" arrival="1719.00" arrivalLane="b2[1][1][1]b_1" arrivalPos="325.74" arrivalSpeed="13.48" duration="289.00" routeLength="2608.05" waitingTime="61.00" waitingCount="3" stopTime="0.00" timeLoss="106.62" rerouteNo="0" devices="vehroute_44 tripinfo_44 fcd_44" vType="DEFAULT_VEHTYPE" speedFactor="1.04" vaporized=""/>
    <tripinfo id="46" depart="1475.00" departLane="a201_0" departPos="5.10" departSpeed="0.00" departDelay="0.88" arrival="1725.00" arrivalLane="b2[1][1][1]b_0" arrivalPos="325.74" arrivalSpeed="13.44" duration="250.00" routeLength="2611.01" waitingTime="34.00" waitingCount="1" stopTime="0.00" timeLoss="59.50" rerouteNo="0" devices="vehroute_46 tripinfo_46 fcd_46" vType="DEFAULT_VEHTYPE" speedFactor="1.00" vaporized=""/>
    <tripinfo id="41" depart="1372.00" departLane="a201_0" departPos="5.10" departSpeed="0.00" departDelay="0.73" arrival="1726.00" arrivalLane="b2[1][1][1]b_1" arrivalPos="325.74" arrivalSpeed="13.17" duration="354.00" routeLength="2608.05" waitingTime="110.00" waitingCount="4" stopTime="0.00" timeLoss="156.03" rerouteNo="0" devices="vehroute_41 tripinfo_41 fcd_41" vType="DEFAULT_VEHTYPE" speedFactor="0.96" vaporized=""/>
    <tripinfo id="51" depart="1608.00" departLane="a201_0" departPos="5.10" departSpeed="0.00" departDelay="1.13" arrival="1837.00" arrivalLane="b2[1][1][1]b_0" arrivalPos="325.74" arrivalSpeed="16.01" duration="229.00" routeLength="2608.05" waitingTime="21.00" waitingCount="1" stopTime="0.00" timeLoss="66.15" rerouteNo="0" devices="vehroute_51 tripinfo_51 fcd_51" vType="DEFAULT_VEHTYPE" speedFactor="1.17" vaporized=""/>
    <tripinfo id="47" depart="1522.00" departLane="a201_0" departPos="5.10" departSpeed="0.00" departDelay="0.32" arrival="1849.00" arrivalLane="b2[1][1][1]b_0" arrivalPos="325.74" arrivalSpeed="12.20" duration="327.00" routeLength="2611.01" waitingTime="84.00" waitingCount="3" stopTime="0.00" timeLoss="116.08" rerouteNo="0" devices="vehroute_47 tripinfo_47 fcd_47" vType="DEFAULT_VEHTYPE" speedFactor="0.90" vaporized=""/>
    <tripinfo id="48" depart="1593.00" departLane="a201_0" departPos="5.10" departSpeed="0.00" departDelay="0.32" arrival="1854.00" arrivalLane="b2[1][1][1]b_0" arrivalPos="325.74" arrivalSpeed="11.32" duration="261.00" routeLength="2611.01" waitingTime="21.00" waitingCount="1" stopTime="0.00" timeLoss="44.34" rerouteNo="0" devices="vehroute_48 tripinfo_48 fcd_48" vType="DEFAULT_VEHTYPE" speedFactor="0.88" vaporized=""/>
    <tripinfo id="49" depart="1596.00" departLane="a201_0" departPos="5.10" departSpeed="0.00" departDelay="2.22" arrival="1856.00" arrivalLane="b2[1][1][1]b_0" arrivalPos="325.74" arrivalSpeed="11.33" duration="260.00" routeLength="2611.01" waitingTime="12.00" waitingCount="1" stopTime="0.00" timeLoss="36.66" rerouteNo="0" devices="vehroute_49 tripinfo_49 fcd_49" vType="DEFAULT_VEHTYPE" speedFactor="0.85" vaporized=""/>
    <tripinfo id="53" depart="1710.00" departLane="a201_0" departPos="5.10" departSpeed="0.00" departDelay="0.41" arrival="1972.00" arrivalLane="b2[1][1][1]b_0" arrivalPos="325.74" arrivalSpeed="14.56" duration="262.00" routeLength="2611.01" waitingTime="45.00" waitingCount="4" stopTime="0.00" timeLoss="88.42" rerouteNo="0" devices="vehroute_53 tripinfo_53 fcd_53" vType="DEFAULT_VEHTYPE" speedFactor="1.10" vaporized=""/>
    <tripinfo id="52" depart="1645.00" departLane="a201_0" departPos="5.10" departSpeed="0.00" departDelay="0.31" arrival="1974.00" arrivalLane="b2[1][1][1]b_1" arrivalPos="325.74" arrivalSpeed="13.39" duration="329.00" routeLength="2611.01" waitingTime="102.00" waitingCount="4" stopTime="0.00" timeLoss="142.13" rerouteNo="0" devices="vehroute_52 tripinfo_52 fcd_52" vType="DEFAULT_VEHTYPE" speedFactor="1.02" vaporized=""/>
    <tripinfo id="50" depart="1605.00" departLane="a201_0" departPos="5.10" departSpeed="0.00" departDelay="0.15" arrival="1981.00" arrivalLane="b2[1][1][1]b_0" arrivalPos="325.74" arrivalSpeed="10.60" duration="376.00" routeLength="2611.01" waitingTime="122.00" waitingCount="2" stopTime="0.00" timeLoss="154.31" rerouteNo="0" devices="vehroute_50 tripinfo_50 fcd_50" vType="DEFAULT_VEHTYPE" speedFactor="0.85" vaporized=""/>
    <tripinfo id="54" depart="1805.00" departLane="a201_0" departPos="5.10" departSpeed="0.00" departDelay="0.85" arrival="2103.00" arrivalLane="b2[1][1][1]b_1" arrivalPos="325.74" arrivalSpeed="12.85" duration="298.00" routeLength="2611.01" waitingTime="74.00" waitingCount="3" stopTime="0.00" timeLoss="108.96" rerouteNo="0" devices="vehroute_54 tripinfo_54 fcd_54" vType="DEFAULT_VEHTYPE" speedFactor="1.00" vaporized=""/>
    <tripinfo id="55" depart="1825.00" departLane="a201_0" departPos="5.10" departSpeed="0.00" departDelay="0.38" arrival="2103.00" arrivalLane="b2[1][1][1]b_0" arrivalPos="325.74" arrivalSpeed="12.82" duration="278.00" routeLength="2608.05" waitingTime="58.00" waitingCount="3" stopTime="0.00" timeLoss="87.93" rerouteNo="0" devices="vehroute_55 tripinfo_55 fcd_55" vType="DEFAULT_VEHTYPE" speedFactor="1.00" vaporized=""/>
    <tripinfo id="56" depart="1836.00" departLane="a201_0" departPos="5.10" departSpeed="0.00" departDelay="0.99" arrival="2113.00" arrivalLane="b2[1][1][1]b_0" arrivalPos="325.74" arrivalSpeed="11.47" duration="277.00" routeLength="2611.01" waitingTime="44.00" waitingCount="1" stopTime="0.00" timeLoss="66.34" rerouteNo="0" devices="vehroute_56 tripinfo_56 fcd_56" vType="DEFAULT_VEHTYPE" speedFactor="0.90" vaporized=""/>
    <tripinfo id="57" depart="1917.00" departLane="a201_0" departPos="5.10" departSpeed="0.00" departDelay="0.07" arrival="2225.00" arrivalLane="b2[1][1][1]b_0" arrivalPos="325.74" arrivalSpeed="15.12" duration="308.00" routeLength="2611.01" waitingTime="107.00" waitingCount="3" stopTime="0.00" timeLoss="141.78" rerouteNo="0" devices="vehroute_57 tripinfo_57 fcd_57" vType="DEFAULT_VEHTYPE" speedFactor="1.14" vaporized=""/>
    <tripinfo id="58" depart="1944.00" departLane="a201_0" departPos="5.10" departSpeed="0.00" departDelay="0.96" arrival="2353.00" arrivalLane="b2[1][1][1]b_0" arrivalPos="325.74" arrivalSpeed="13.33" duration="409.00" routeLength="2611.01" waitingTime="185.00" waitingCount="4" stopTime="0.00" timeLoss="223.25" rerouteNo="0" devices="vehroute_58 tripinfo_58 fcd_58" vType="DEFAULT_VEHTYPE" speedFactor="1.02" vaporized=""/>
    <tripinfo id="59" depart="2040.00" departLane="a201_0" departPos="5.10" departSpeed="0.00" departDelay="0.33" arrival="2354.00" arrivalLane="b2[1][1][1]b_1" arrivalPos="325.74" arrivalSpeed="12.61" duration="314.00" routeLength="2611.01" waitingTime="85.00" waitingCount="3" stopTime="0.00" timeLoss="118.52" rerouteNo="0" devices="vehroute_59 tripinfo_59 fcd_59" vType="DEFAULT_VEHTYPE" speedFactor="0.97" vaporized=""/>
    <tripinfo id="60" depart="2069.00" departLane="a201_0" departPos="5.10" departSpeed="0.00" departDelay="0.49" arrival="2354.00" arrivalLane="b2[1][1][1]b_0" arrivalPos="325.74" arrivalSpeed="14.19" duration="285.00" routeLength="2611.01" waitingTime="69.00" waitingCount="3" stopTime="0.00" timeLoss="109.91" rerouteNo="0" devices="vehroute_60 tripinfo_60 fcd_60" vType="DEFAULT_VEHTYPE" speedFactor="1.08" vaporized=""/>
    <tripinfo id="61" depart="2090.00" departLane="a201_0" departPos="5.10" departSpeed="0.00" departDelay="0.29" arrival="2475.00" arrivalLane="b2[1][1][1]b_0" arrivalPos="325.74" arrivalSpeed="15.07" duration="385.00" routeLength="2611.01" waitingTime="174.00" waitingCount="4" stopTime="0.00" timeLoss="215.83" rerouteNo="0" devices="vehroute_61 tripinfo_61 fcd_61" vType="DEFAULT_VEHTYPE" speedFactor="1.12" vaporized=""/>
    <tripinfo id="62" depart="2135.00" departLane="a201_0" departPos="5.10" departSpeed="0.00" departDelay="0.88" arrival="2477.00" arrivalLane="b2[1][1][1]b_0" arrivalPos="325.74" arrivalSpeed="12.83" duration="342.00" routeLength="2608.05" waitingTime="117.00" waitingCount="4" stopTime="0.00" timeLoss="155.24" rerouteNo="0" devices="vehroute_62 tripinfo_62 fcd_62" vType="DEFAULT_VEHTYPE" speedFactor="1.02" vaporized=""/>
    <tripinfo id="63" depart="2145.00" departLane="a201_0" departPos="5.10" departSpeed="0.00" departDelay="0.30" arrival="2480.00" arrivalLane="b2[1][1][1]b_0" arrivalPos="325.74" arrivalSpeed="13.04" duration="335.00" routeLength="2608.05" waitingTime="101.00" waitingCount="4" stopTime="0.00" timeLoss="142.93" rerouteNo="0" devices="vehroute_63 tripinfo_63 fcd_63" vType="DEFAULT_VEHTYPE" speedFactor="0.99" vaporized=""/>
    <tripinfo id="64" depart="2150.00" departLane="a201_0" departPos="5.10" departSpeed="0.00" departDelay="0.63" arrival="2480.00" arrivalLane="b2[1][1][1]b_1" arrivalPos="325.74" arrivalSpeed="12.53" duration="330.00" routeLength="2611.01" waitingTime="81.00" waitingCount="4" stopTime="0.00" timeLoss="127.41" rerouteNo="0" devices="vehroute_64 tripinfo_64 fcd_64" vType="DEFAULT_VEHTYPE" speedFactor="0.94" vaporized=""/>
    <tripinfo id="67" depart="2222.00" departLane="a201_0" departPos="5.10" departSpeed="0.00" departDelay="0.24" arrival="2482.00" arrivalLane="b2[1][1][1]b_1" arrivalPos="325.74" arrivalSpeed="12.63" duration="260.00" routeLength="2611.01" waitingTime="22.00" waitingCount="2" stopTime="0.00" timeLoss="52.59" rerouteNo="0" devices="vehroute_67 tripinfo_67 fcd_67" vType="DEFAULT_VEHTYPE" speedFactor="0.91" vaporized=""/>