<?xml version="1.0" encoding="UTF-8"?>

<!-- generated on 2025-03-21 17:55:49 by Eclipse SUMO sumo Version 1.21.0
<sumoConfiguration xmlns:xsi="http://www.w3.org/2001/XMLSchema-instance" xsi:noNamespaceSchemaLocation="http://sumo.dlr.de/xsd/sumoConfiguration.xsd">

    <input>
        <net-file value="${STATICPATH}/joined_lanes.net.xml"/>
        <route-files value="${SIMULATIONPATH}/generatedRoutes.rou.xml"/>
        <additional-files value="${STATICPATH}/detectors.add.xml,${STATICPATH}/joined_vtypes.add.xml,${STATICPATH}/joined_tls.add.xml"/>
    </input>

    <output>
        <fcd-output value="${SIMULATIONPATH}/fcd.xml"/>
        <queue-output value="${SIMULATIONPATH}/queue.xml"/>
        <summary-output value="${SIMULATIONPATH}/summary.xml"/>
        <tripinfo-output value="${SIMULATIONPATH}/tripinfos.xml"/>
        <vehroute-output value="${SIMULATIONPATH}/vehroute.xml"/>
        <save-state.prefix value="configs\state"/>
    </output>

    <processing>
        <ignore-junction-blocker value="1"/>
        <ignore-route-errors value="true"/>
        <time-to-teleport value="-1"/>
    </processing>

    <report>
        <log value="C:/Users/fabio/Desktop/sumo_log.txt"/>
        <no-step-log value="true"/>
    </report>

    <emissions>
        <phemlight-path value="configs\./PHEMlight/"/>
    </emissions>

    <traci_server>
        <remote-port value="60242"/>
    </traci_server>

</sumoConfiguration>
-->

<fcd-export xmlns:xsi="http://www.w3.org/2001/XMLSchema-instance" xsi:noNamespaceSchemaLocation="http://sumo.dlr.de/xsd/fcd_file.xsd">
    <timestep time="0.00"/>
    <timestep time="1.00"/>
    <timestep time="2.00">
        <vehicle id="0" x="2096.33" y="944.33" angle="294.77" type="DEFAULT_VEHTYPE" speed="0.00" pos="5.10" lane="a55_0" slope="0.00"/>
    </timestep>
    <timestep time="3.00">
        <vehicle id="0" x="2094.38" y="945.22" angle="294.77" type="DEFAULT_VEHTYPE" speed="2.14" pos="7.24" lane="a55_0" slope="0.00"/>
    </timestep>
    <timestep time="4.00">
        <vehicle id="0" x="2091.16" y="946.71" angle="294.77" type="DEFAULT_VEHTYPE" speed="3.55" pos="10.79" lane="a55_0" slope="0.00"/>
    </timestep>
    <timestep time="5.00">
        <vehicle id="0" x="2086.54" y="948.84" angle="294.77" type="DEFAULT_VEHTYPE" speed="5.09" pos="15.88" lane="a55_0" slope="0.00"/>
        <vehicle id="1" x="1938.53" y="491.65" angle="346.62" type="DEFAULT_VEHTYPE" speed="0.00" pos="5.10" lane="a43[1]_0" slope="0.00"/>
    </timestep>
    <timestep time="6.00">
        <vehicle id="0" x="2080.45" y="951.66" angle="294.77" type="DEFAULT_VEHTYPE" speed="6.71" pos="22.59" lane="a55_0" slope="0.00"/>
        <vehicle id="1" x="1937.98" y="493.98" angle="346.62" type="DEFAULT_VEHTYPE" speed="2.39" pos="7.49" lane="a43[1]_0" slope="0.00"/>
    </timestep>
    <timestep time="7.00">
        <vehicle id="0" x="2072.59" y="955.28" angle="294.77" type="DEFAULT_VEHTYPE" speed="8.66" pos="31.25" lane="a55_0" slope="0.00"/>
        <vehicle id="1" x="1937.11" y="497.61" angle="346.62" type="DEFAULT_VEHTYPE" speed="3.73" pos="11.22" lane="a43[1]_0" slope="0.00"/>
    </timestep>
    <timestep time="8.00">
        <vehicle id="0" x="2062.80" y="959.80" angle="294.77" type="DEFAULT_VEHTYPE" speed="10.78" pos="42.03" lane="a55_0" slope="0.00"/>
        <vehicle id="1" x="1935.84" y="502.98" angle="346.62" type="DEFAULT_VEHTYPE" speed="5.52" pos="16.74" lane="a43[1]_0" slope="0.00"/>
    </timestep>
    <timestep time="9.00">
        <vehicle id="0" x="2051.48" y="965.02" angle="294.77" type="DEFAULT_VEHTYPE" speed="12.47" pos="54.50" lane="a55_0" slope="0.00"/>
        <vehicle id="1" x="1934.07" y="510.39" angle="346.62" type="DEFAULT_VEHTYPE" speed="7.61" pos="24.35" lane="a43[1]_0" slope="0.00"/>
    </timestep>
    <timestep time="10.00">
        <vehicle id="0" x="2038.95" y="970.81" angle="294.77" type="DEFAULT_VEHTYPE" speed="13.80" pos="68.30" lane="a55_0" slope="0.00"/>
        <vehicle id="1" x="1931.96" y="519.27" angle="346.62" type="DEFAULT_VEHTYPE" speed="9.13" pos="33.47" lane="a43[1]_0" slope="0.00"/>
    </timestep>
    <timestep time="11.00">
        <vehicle id="0" x="2025.83" y="976.86" angle="294.77" type="DEFAULT_VEHTYPE" speed="14.44" pos="82.74" lane="a55_0" slope="0.00"/>
        <vehicle id="1" x="1929.26" y="530.63" angle="346.62" type="DEFAULT_VEHTYPE" speed="11.68" pos="45.16" lane="a43[1]_0" slope="0.00"/>
    </timestep>
    <timestep time="12.00">
        <vehicle id="0" x="2013.31" y="982.64" angle="294.77" type="DEFAULT_VEHTYPE" speed="13.79" pos="96.53" lane="a55_0" slope="0.00"/>
        <vehicle id="1" x="1926.54" y="542.06" angle="346.62" type="DEFAULT_VEHTYPE" speed="11.74" pos="56.90" lane="a43[1]_0" slope="0.00"/>
    </timestep>
    <timestep time="13.00">
        <vehicle id="0" x="2001.12" y="988.26" angle="294.77" type="DEFAULT_VEHTYPE" speed="13.42" pos="109.96" lane="a55_0" slope="0.00"/>
        <vehicle id="1" x="1923.78" y="553.64" angle="346.62" type="DEFAULT_VEHTYPE" speed="11.90" pos="68.80" lane="a43[1]_0" slope="0.00"/>
    </timestep>
    <timestep time="14.00">
        <vehicle id="0" x="1987.88" y="994.37" angle="294.77" type="DEFAULT_VEHTYPE" speed="14.58" pos="124.53" lane="a55_0" slope="0.00"/>
        <vehicle id="1" x="1922.07" y="560.85" angle="346.62" type="DEFAULT_VEHTYPE" speed="7.40" pos="76.20" lane="a43[1]_0" slope="0.00"/>
    </timestep>
    <timestep time="15.00">
        <vehicle id="0" x="1975.69" y="1000.00" angle="294.77" type="DEFAULT_VEHTYPE" speed="13.43" pos="137.97" lane="a55_0" slope="0.00"/>
        <vehicle id="1" x="1921.40" y="563.67" angle="346.62" type="DEFAULT_VEHTYPE" speed="2.90" pos="79.10" lane="a43[1]_0" slope="0.00"/>
    </timestep>
    <timestep time="16.00">
        <vehicle id="0" x="1962.59" y="1006.04" angle="294.77" type="DEFAULT_VEHTYPE" speed="14.42" pos="152.39" lane="a55_0" slope="0.00"/>
        <vehicle id="1" x="1920.26" y="568.63" angle="347.12" type="DEFAULT_VEHTYPE" speed="5.08" pos="3.66" lane=":a27_4_0" slope="0.00"/>
    </timestep>
    <timestep time="17.00">
        <vehicle id="0" x="1949.77" y="1011.96" angle="294.77" type="DEFAULT_VEHTYPE" speed="14.11" pos="166.50" lane="a55_0" slope="0.00"/>
        <vehicle id="1" x="1918.76" y="575.30" angle="347.30" type="DEFAULT_VEHTYPE" speed="6.83" pos="10.49" lane=":a27_4_0" slope="0.00"/>
    </timestep>
    <timestep time="18.00">
        <vehicle id="0" x="1936.59" y="1018.04" angle="294.77" type="DEFAULT_VEHTYPE" speed="14.52" pos="181.02" lane="a55_0" slope="0.00"/>
        <vehicle id="1" x="1916.75" y="584.23" angle="347.30" type="DEFAULT_VEHTYPE" speed="9.14" pos="19.63" lane=":a27_4_0" slope="0.00"/>
    </timestep>
    <timestep time="19.00">
        <vehicle id="0" x="1924.31" y="1023.71" angle="294.77" type="DEFAULT_VEHTYPE" speed="13.53" pos="194.55" lane="a55_0" slope="0.00"/>
        <vehicle id="1" x="1914.18" y="595.63" angle="347.30" type="DEFAULT_VEHTYPE" speed="11.66" pos="31.29" lane=":a27_4_0" slope="0.00"/>
    </timestep>
    <timestep time="20.00">
        <vehicle id="0" x="1911.91" y="1029.43" angle="294.77" type="DEFAULT_VEHTYPE" speed="13.66" pos="208.21" lane="a55_0" slope="0.00"/>
        <vehicle id="1" x="1910.97" y="607.83" angle="345.09" type="DEFAULT_VEHTYPE" speed="12.62" pos="11.72" lane="a201_0" slope="0.00"/>
    </timestep>
    <timestep time="21.00">
        <vehicle id="0" x="1899.14" y="1035.32" angle="294.77" type="DEFAULT_VEHTYPE" speed="14.06" pos="222.27" lane="a55_0" slope="0.00"/>
        <vehicle id="1" x="1907.72" y="620.03" angle="345.09" type="DEFAULT_VEHTYPE" speed="12.63" pos="24.35" lane="a201_0" slope="0.00"/>
    </timestep>
    <timestep time="22.00">
        <vehicle id="0" x="1886.81" y="1041.01" angle="294.77" type="DEFAULT_VEHTYPE" speed="13.58" pos="235.85" lane="a55_0" slope="0.00"/>
        <vehicle id="1" x="1904.51" y="632.06" angle="345.09" type="DEFAULT_VEHTYPE" speed="12.45" pos="36.80" lane="a201_0" slope="0.00"/>
    </timestep>
    <timestep time="23.00">
        <vehicle id="0" x="1874.56" y="1046.67" angle="294.77" type="DEFAULT_VEHTYPE" speed="13.49" pos="249.34" lane="a55_0" slope="0.00"/>
        <vehicle id="1" x="1901.16" y="644.63" angle="345.09" type="DEFAULT_VEHTYPE" speed="13.02" pos="49.82" lane="a201_0" slope="0.00"/>
    </timestep>
    <timestep time="24.00">
        <vehicle id="0" x="1862.33" y="1052.31" angle="294.77" type="DEFAULT_VEHTYPE" speed="13.46" pos="262.81" lane="a55_0" slope="0.00"/>
        <vehicle id="1" x="1897.92" y="656.81" angle="345.09" type="DEFAULT_VEHTYPE" speed="12.61" pos="62.43" lane="a201_0" slope="0.00"/>
    </timestep>
    <timestep time="25.00">
        <vehicle id="0" x="1849.42" y="1058.27" angle="294.77" type="DEFAULT_VEHTYPE" speed="14.22" pos="277.03" lane="a55_0" slope="0.00"/>
        <vehicle id="1" x="1894.74" y="668.76" angle="345.09" type="DEFAULT_VEHTYPE" speed="12.37" pos="74.80" lane="a201_0" slope="0.00"/>
    </timestep>
    <timestep time="26.00">
        <vehicle id="0" x="1836.12" y="1061.12" angle="291.68" type="DEFAULT_VEHTYPE" speed="13.72" pos="2.90" lane="a55b_2" slope="0.00"/>
        <vehicle id="1" x="1891.46" y="681.06" angle="345.09" type="DEFAULT_VEHTYPE" speed="12.73" pos="87.54" lane="a201_0" slope="0.00"/>
    </timestep>
    <timestep time="27.00">
        <vehicle id="0" x="1827.74" y="1065.33" angle="296.66" type="DEFAULT_VEHTYPE" speed="9.37" pos="12.28" lane="a55b_2" slope="0.00"/>
        <vehicle id="1" x="1888.39" y="692.61" angle="345.09" type="DEFAULT_VEHTYPE" speed="11.96" pos="99.50" lane="a201_0" slope="0.00"/>
    </timestep>
    <timestep time="28.00">
        <vehicle id="0" x="1823.38" y="1067.52" angle="296.66" type="DEFAULT_VEHTYPE" speed="4.87" pos="17.15" lane="a55b_2" slope="0.00"/>
        <vehicle id="1" x="1885.25" y="704.39" angle="345.09" type="DEFAULT_VEHTYPE" speed="12.19" pos="111.69" lane="a201_0" slope="0.00"/>
    </timestep>
    <timestep time="29.00">
        <vehicle id="0" x="1823.01" y="1067.70" angle="296.66" type="DEFAULT_VEHTYPE" speed="0.41" pos="17.56" lane="a55b_2" slope="0.00"/>
        <vehicle id="1" x="1882.03" y="716.49" angle="345.09" type="DEFAULT_VEHTYPE" speed="12.52" pos="124.21" lane="a201_0" slope="0.00"/>
    </timestep>
    <timestep time="30.00">
        <vehicle id="0" x="1822.99" y="1067.71" angle="296.66" type="DEFAULT_VEHTYPE" speed="0.01" pos="17.58" lane="a55b_2" slope="0.00"/>
        <vehicle id="1" x="1878.68" y="729.06" angle="345.09" type="DEFAULT_VEHTYPE" speed="13.02" pos="137.23" lane="a201_0" slope="0.00"/>
    </timestep>
    <timestep time="31.00">
        <vehicle id="0" x="1822.99" y="1067.71" angle="296.66" type="DEFAULT_VEHTYPE" speed="0.00" pos="17.58" lane="a55b_2" slope="0.00"/>
        <vehicle id="1" x="1875.64" y="740.46" angle="345.09" type="DEFAULT_VEHTYPE" speed="11.80" pos="149.03" lane="a201_0" slope="0.00"/>
    </timestep>
    <timestep time="32.00">
        <vehicle id="0" x="1824.43" y="1070.57" angle="296.66" type="DEFAULT_VEHTYPE" speed="0.00" pos="17.58" lane="a55b_1" slope="0.00"/>
        <vehicle id="1" x="1869.56" y="751.47" angle="345.98" type="DEFAULT_VEHTYPE" speed="12.14" pos="161.17" lane="a201_1" slope="0.00"/>
    </timestep>
    <timestep time="33.00">
        <vehicle id="0" x="1824.43" y="1070.57" angle="296.66" type="DEFAULT_VEHTYPE" speed="0.00" pos="17.58" lane="a55b_1" slope="0.00"/>
        <vehicle id="1" x="1866.70" y="762.93" angle="345.98" type="DEFAULT_VEHTYPE" speed="11.81" pos="172.98" lane="a201_1" slope="0.00"/>
    </timestep>
    <timestep time="34.00">
        <vehicle id="0" x="1824.43" y="1070.57" angle="296.66" type="DEFAULT_VEHTYPE" speed="0.00" pos="17.58" lane="a55b_1" slope="0.00"/>
        <vehicle id="1" x="1863.56" y="775.49" angle="345.98" type="DEFAULT_VEHTYPE" speed="12.95" pos="185.93" lane="a201_1" slope="0.00"/>
    </timestep>
    <timestep time="35.00">
        <vehicle id="0" x="1824.43" y="1070.57" angle="296.66" type="DEFAULT_VEHTYPE" speed="0.00" pos="17.58" lane="a55b_1" slope="0.00"/>
        <vehicle id="1" x="1860.47" y="787.89" angle="345.98" type="DEFAULT_VEHTYPE" speed="12.78" pos="198.71" lane="a201_1" slope="0.00"/>
    </timestep>
    <timestep time="36.00">
        <vehicle id="0" x="1824.43" y="1070.57" angle="296.66" type="DEFAULT_VEHTYPE" speed="0.00" pos="17.58" lane="a55b_1" slope="0.00"/>
        <vehicle id="1" x="1857.40" y="800.16" angle="345.98" type="DEFAULT_VEHTYPE" speed="12.64" pos="211.36" lane="a201_1" slope="0.00"/>
    </timestep>
    <timestep time="37.00">
        <vehicle id="0" x="1824.43" y="1070.57" angle="296.66" type="DEFAULT_VEHTYPE" speed="0.00" pos="17.58" lane="a55b_1" slope="0.00"/>
        <vehicle id="1" x="1854.58" y="811.62" angle="346.41" type="DEFAULT_VEHTYPE" speed="11.80" pos="223.16" lane="a201_1" slope="0.00"/>
    </timestep>
    <timestep time="38.00">
        <vehicle id="0" x="1824.43" y="1070.57" angle="296.66" type="DEFAULT_VEHTYPE" speed="0.00" pos="17.58" lane="a55b_1" slope="0.00"/>
        <vehicle id="1" x="1851.60" y="824.03" angle="346.12" type="DEFAULT_VEHTYPE" speed="12.77" pos="4.56" lane=":a1c_1_1" slope="0.00"/>
    </timestep>
    <timestep time="39.00">
        <vehicle id="0" x="1824.43" y="1070.57" angle="296.66" type="DEFAULT_VEHTYPE" speed="0.00" pos="17.58" lane="a55b_1" slope="0.00"/>
        <vehicle id="1" x="1848.69" y="835.64" angle="345.67" type="DEFAULT_VEHTYPE" speed="11.98" pos="3.58" lane="a201c_1" slope="0.00"/>
    </timestep>
    <timestep time="40.00">
        <vehicle id="0" x="1824.43" y="1070.57" angle="296.66" type="DEFAULT_VEHTYPE" speed="0.00" pos="17.58" lane="a55b_1" slope="0.00"/>
        <vehicle id="1" x="1845.94" y="847.42" angle="347.71" type="DEFAULT_VEHTYPE" speed="12.10" pos="7.52" lane=":a1_0_1" slope="0.00"/>
    </timestep>
    <timestep time="41.00">
        <vehicle id="0" x="1824.43" y="1070.57" angle="296.66" type="DEFAULT_VEHTYPE" speed="0.00" pos="17.58" lane="a55b_1" slope="0.00"/>
        <vehicle id="1" x="1843.33" y="859.00" angle="346.88" type="DEFAULT_VEHTYPE" speed="11.87" pos="6.23" lane="a204a[0]_1" slope="0.00"/>
    </timestep>
    <timestep time="42.00">
        <vehicle id="0" x="1824.43" y="1070.57" angle="296.66" type="DEFAULT_VEHTYPE" speed="0.00" pos="17.58" lane="a55b_1" slope="0.00"/>
        <vehicle id="1" x="1840.52" y="871.03" angle="346.88" type="DEFAULT_VEHTYPE" speed="12.35" pos="18.58" lane="a204a[0]_1" slope="0.00"/>
    </timestep>
    <timestep time="43.00">
        <vehicle id="0" x="1824.43" y="1070.57" angle="296.66" type="DEFAULT_VEHTYPE" speed="0.00" pos="17.58" lane="a55b_1" slope="0.00"/>
        <vehicle id="1" x="1837.76" y="882.87" angle="346.88" type="DEFAULT_VEHTYPE" speed="12.16" pos="30.74" lane="a204a[0]_1" slope="0.00"/>
    </timestep>
    <timestep time="44.00">
        <vehicle id="0" x="1824.43" y="1070.57" angle="296.66" type="DEFAULT_VEHTYPE" speed="0.00" pos="17.58" lane="a55b_1" slope="0.00"/>
        <vehicle id="1" x="1834.90" y="894.97" angle="346.55" type="DEFAULT_VEHTYPE" speed="12.44" pos="43.18" lane="a204a[0]_1" slope="0.00"/>
    </timestep>
    <timestep time="45.00">
        <vehicle id="0" x="1824.43" y="1070.57" angle="296.66" type="DEFAULT_VEHTYPE" speed="0.00" pos="17.58" lane="a55b_1" slope="0.00"/>
        <vehicle id="1" x="1831.90" y="907.49" angle="346.55" type="DEFAULT_VEHTYPE" speed="12.87" pos="56.05" lane="a204a[0]_1" slope="0.00"/>
    </timestep>
    <timestep time="46.00">
        <vehicle id="0" x="1824.43" y="1070.57" angle="296.66" type="DEFAULT_VEHTYPE" speed="0.00" pos="17.58" lane="a55b_1" slope="0.00"/>
        <vehicle id="1" x="1828.96" y="919.77" angle="346.55" type="DEFAULT_VEHTYPE" speed="12.63" pos="68.68" lane="a204a[0]_1" slope="0.00"/>
    </timestep>
    <timestep time="47.00">
        <vehicle id="0" x="1824.43" y="1070.57" angle="296.66" type="DEFAULT_VEHTYPE" speed="0.00" pos="17.58" lane="a55b_1" slope="0.00"/>
        <vehicle id="1" x="1826.10" y="931.75" angle="346.55" type="DEFAULT_VEHTYPE" speed="12.32" pos="81.00" lane="a204a[0]_1" slope="0.00"/>
    </timestep>
    <timestep time="48.00">
        <vehicle id="0" x="1824.43" y="1070.57" angle="296.66" type="DEFAULT_VEHTYPE" speed="0.00" pos="17.58" lane="a55b_1" slope="0.00"/>
        <vehicle id="1" x="1823.14" y="944.10" angle="346.55" type="DEFAULT_VEHTYPE" speed="12.70" pos="93.70" lane="a204a[0]_1" slope="0.00"/>
    </timestep>
    <timestep time="49.00">
        <vehicle id="0" x="1824.43" y="1070.57" angle="296.66" type="DEFAULT_VEHTYPE" speed="0.00" pos="17.58" lane="a55b_1" slope="0.00"/>
        <vehicle id="1" x="1820.28" y="956.08" angle="346.55" type="DEFAULT_VEHTYPE" speed="12.32" pos="106.02" lane="a204a[0]_1" slope="0.00"/>
    </timestep>
    <timestep time="50.00">
        <vehicle id="0" x="1824.43" y="1070.57" angle="296.66" type="DEFAULT_VEHTYPE" speed="0.00" pos="17.58" lane="a55b_1" slope="0.00"/>
        <vehicle id="1" x="1817.26" y="968.69" angle="346.55" type="DEFAULT_VEHTYPE" speed="12.96" pos="118.98" lane="a204a[0]_1" slope="0.00"/>
    </timestep>
    <timestep time="51.00">
        <vehicle id="0" x="1824.43" y="1070.57" angle="296.66" type="DEFAULT_VEHTYPE" speed="0.00" pos="17.58" lane="a55b_1" slope="0.00"/>
        <vehicle id="1" x="1814.43" y="980.52" angle="346.55" type="DEFAULT_VEHTYPE" speed="12.17" pos="131.14" lane="a204a[0]_1" slope="0.00"/>
    </timestep>
    <timestep time="52.00">
        <vehicle id="0" x="1824.43" y="1070.57" angle="296.66" type="DEFAULT_VEHTYPE" speed="0.00" pos="17.58" lane="a55b_1" slope="0.00"/>
        <vehicle id="1" x="1811.59" y="992.38" angle="346.55" type="DEFAULT_VEHTYPE" speed="12.19" pos="143.34" lane="a204a[0]_1" slope="0.00"/>
    </timestep>
    <timestep time="53.00">
        <vehicle id="0" x="1824.43" y="1070.57" angle="296.66" type="DEFAULT_VEHTYPE" speed="0.00" pos="17.58" lane="a55b_1" slope="0.00"/>
        <vehicle id="1" x="1808.68" y="1004.56" angle="346.55" type="DEFAULT_VEHTYPE" speed="12.53" pos="155.86" lane="a204a[0]_1" slope="0.00"/>
    </timestep>
    <timestep time="54.00">
        <vehicle id="0" x="1824.43" y="1070.57" angle="296.66" type="DEFAULT_VEHTYPE" speed="0.00" pos="17.58" lane="a55b_1" slope="0.00"/>
        <vehicle id="1" x="1805.86" y="1016.34" angle="346.55" type="DEFAULT_VEHTYPE" speed="12.12" pos="167.98" lane="a204a[0]_1" slope="0.00"/>
    </timestep>
    <timestep time="55.00">
        <vehicle id="0" x="1824.43" y="1070.57" angle="296.66" type="DEFAULT_VEHTYPE" speed="0.00" pos="17.58" lane="a55b_1" slope="0.00"/>
        <vehicle id="1" x="1803.36" y="1026.77" angle="346.47" type="DEFAULT_VEHTYPE" speed="10.72" pos="178.70" lane="a204a[0]_1" slope="0.00"/>
    </timestep>
    <timestep time="56.00">
        <vehicle id="0" x="1824.43" y="1070.57" angle="296.66" type="DEFAULT_VEHTYPE" speed="0.00" pos="17.58" lane="a55b_1" slope="0.00"/>
        <vehicle id="1" x="1802.25" y="1033.76" angle="353.08" type="DEFAULT_VEHTYPE" speed="7.09" pos="185.79" lane="a204a[0]_1" slope="0.00"/>
    </timestep>
    <timestep time="57.00">
        <vehicle id="0" x="1824.43" y="1070.57" angle="296.66" type="DEFAULT_VEHTYPE" speed="0.00" pos="17.58" lane="a55b_1" slope="0.00"/>
        <vehicle id="1" x="1802.15" y="1036.32" angle="355.70" type="DEFAULT_VEHTYPE" speed="2.59" pos="188.38" lane="a204a[0]_1" slope="0.00"/>
    </timestep>
    <timestep time="58.00">
        <vehicle id="0" x="1822.69" y="1071.61" angle="298.32" type="DEFAULT_VEHTYPE" speed="2.07" pos="1.07" lane=":a44_3_0" slope="0.00"/>
        <vehicle id="1" x="1802.26" y="1036.77" angle="357.63" type="DEFAULT_VEHTYPE" speed="0.47" pos="188.85" lane="a204a[0]_1" slope="0.00"/>
    </timestep>
    <timestep time="59.00">
        <vehicle id="0" x="1819.98" y="1073.48" angle="303.81" type="DEFAULT_VEHTYPE" speed="3.41" pos="4.48" lane=":a44_3_0" slope="0.00"/>
        <vehicle id="1" x="1802.32" y="1037.01" angle="358.63" type="DEFAULT_VEHTYPE" speed="0.24" pos="189.09" lane="a204a[0]_1" slope="0.00"/>
    </timestep>
    <timestep time="60.00">
        <vehicle id="0" x="1816.28" y="1077.18" angle="315.90" type="DEFAULT_VEHTYPE" speed="5.47" pos="9.95" lane=":a44_3_0" slope="0.00"/>
        <vehicle id="1" x="1802.35" y="1037.11" angle="359.08" type="DEFAULT_VEHTYPE" speed="0.11" pos="189.20" lane="a204a[0]_1" slope="0.00"/>
    </timestep>
    <timestep time="61.00">
        <vehicle id="0" x="1811.84" y="1082.32" angle="318.35" type="DEFAULT_VEHTYPE" speed="7.07" pos="17.02" lane=":a44_3_0" slope="0.00"/>
        <vehicle id="1" x="1802.36" y="1037.18" angle="359.34" type="DEFAULT_VEHTYPE" speed="0.06" pos="189.26" lane="a204a[0]_1" slope="0.00"/>
    </timestep>
    <timestep time="62.00">
        <vehicle id="0" x="1803.89" y="1086.89" angle="297.20" type="DEFAULT_VEHTYPE" speed="8.93" pos="3.61" lane="a125_0" slope="0.00"/>
        <vehicle id="1" x="1802.37" y="1037.19" angle="359.42" type="DEFAULT_VEHTYPE" speed="0.02" pos="189.28" lane="a204a[0]_1" slope="0.00"/>
    </timestep>
    <timestep time="63.00">
        <vehicle id="0" x="1792.93" y="1090.15" angle="276.11" type="DEFAULT_VEHTYPE" speed="10.69" pos="2.14" lane=":a78_4_0" slope="0.00"/>
        <vehicle id="1" x="1802.37" y="1037.21" angle="359.48" type="DEFAULT_VEHTYPE" speed="0.01" pos="189.30" lane="a204a[0]_1" slope="0.00"/>
    </timestep>
    <timestep time="64.00">
        <vehicle id="0" x="1780.66" y="1089.55" angle="269.60" type="DEFAULT_VEHTYPE" speed="12.67" pos="14.81" lane=":a78_4_0" slope="0.00"/>
        <vehicle id="1" x="1802.37" y="1037.21" angle="359.49" type="DEFAULT_VEHTYPE" speed="0.00" pos="189.30" lane="a204a[0]_1" slope="0.00"/>
        <vehicle id="2" x="1115.46" y="613.09" angle="258.04" type="DEFAULT_VEHTYPE" speed="0.00" pos="5.10" lane="a190_0" slope="0.00"/>
    </timestep>
    <timestep time="65.00">
        <vehicle id="0" x="1766.55" y="1091.06" angle="294.92" type="DEFAULT_VEHTYPE" speed="13.81" pos="4.44" lane="b12_1" slope="0.00"/>
        <vehicle id="1" x="1802.37" y="1037.21" angle="359.49" type="DEFAULT_VEHTYPE" speed="0.00" pos="189.30" lane="a204a[0]_1" slope="0.00"/>
        <vehicle id="2" x="1114.05" y="612.79" angle="258.04" type="DEFAULT_VEHTYPE" speed="1.44" pos="6.54" lane="a190_0" slope="0.00"/>
    </timestep>
    <timestep time="66.00">
        <vehicle id="0" x="1754.14" y="1097.01" angle="295.59" type="DEFAULT_VEHTYPE" speed="13.77" pos="18.21" lane="b12_1" slope="0.00"/>
        <vehicle id="1" x="1802.37" y="1037.21" angle="359.49" type="DEFAULT_VEHTYPE" speed="0.00" pos="189.30" lane="a204a[0]_1" slope="0.00"/>
        <vehicle id="2" x="1111.00" y="612.15" angle="258.04" type="DEFAULT_VEHTYPE" speed="3.12" pos="9.66" lane="a190_0" slope="0.00"/>
    </timestep>
    <timestep time="67.00">
        <vehicle id="0" x="1741.52" y="1103.05" angle="295.59" type="DEFAULT_VEHTYPE" speed="13.99" pos="32.20" lane="b12_1" slope="0.00"/>
        <vehicle id="1" x="1802.37" y="1037.21" angle="359.49" type="DEFAULT_VEHTYPE" speed="0.00" pos="189.30" lane="a204a[0]_1" slope="0.00"/>
        <vehicle id="2" x="1105.47" y="610.98" angle="258.04" type="DEFAULT_VEHTYPE" speed="5.66" pos="15.31" lane="a190_0" slope="0.00"/>
    </timestep>
    <timestep time="68.00">
        <vehicle id="0" x="1729.22" y="1108.94" angle="295.59" type="DEFAULT_VEHTYPE" speed="13.64" pos="45.84" lane="b12_1" slope="0.00"/>
        <vehicle id="1" x="1802.37" y="1037.21" angle="359.49" type="DEFAULT_VEHTYPE" speed="0.00" pos="189.30" lane="a204a[0]_1" slope="0.00"/>
        <vehicle id="2" x="1098.02" y="609.40" angle="258.04" type="DEFAULT_VEHTYPE" speed="7.62" pos="22.93" lane="a190_0" slope="0.00"/>
    </timestep>
    <timestep time="69.00">
        <vehicle id="0" x="1716.44" y="1115.06" angle="295.59" type="DEFAULT_VEHTYPE" speed="14.17" pos="60.01" lane="b12_1" slope="0.00"/>
        <vehicle id="1" x="1802.37" y="1037.21" angle="359.49" type="DEFAULT_VEHTYPE" speed="0.00" pos="189.30" lane="a204a[0]_1" slope="0.00"/>
        <vehicle id="2" x="1088.77" y="607.44" angle="258.04" type="DEFAULT_VEHTYPE" speed="9.45" pos="32.38" lane="a190_0" slope="0.00"/>
    </timestep>
    <timestep time="70.00">
        <vehicle id="0" x="1703.60" y="1121.21" angle="295.59" type="DEFAULT_VEHTYPE" speed="14.24" pos="74.25" lane="b12_1" slope="0.00"/>
        <vehicle id="1" x="1802.37" y="1037.21" angle="359.49" type="DEFAULT_VEHTYPE" speed="0.00" pos="189.30" lane="a204a[0]_1" slope="0.00"/>
        <vehicle id="2" x="1077.04" y="604.95" angle="258.04" type="DEFAULT_VEHTYPE" speed="11.99" pos="44.38" lane="a190_0" slope="0.00"/>
    </timestep>
    <timestep time="71.00">
        <vehicle id="0" x="1691.41" y="1127.05" angle="295.59" type="DEFAULT_VEHTYPE" speed="13.52" pos="87.76" lane="b12_1" slope="0.00"/>
        <vehicle id="1" x="1802.37" y="1037.21" angle="359.49" type="DEFAULT_VEHTYPE" speed="0.00" pos="189.30" lane="a204a[0]_1" slope="0.00"/>
        <vehicle id="2" x="1064.26" y="602.24" angle="258.04" type="DEFAULT_VEHTYPE" speed="13.07" pos="57.44" lane="a190_0" slope="0.00"/>
    </timestep>
    <timestep time="72.00">
        <vehicle id="0" x="1678.63" y="1133.17" angle="295.59" type="DEFAULT_VEHTYPE" speed="14.16" pos="101.93" lane="b12_1" slope="0.00"/>
        <vehicle id="1" x="1802.37" y="1037.21" angle="359.49" type="DEFAULT_VEHTYPE" speed="0.00" pos="189.30" lane="a204a[0]_1" slope="0.00"/>
        <vehicle id="2" x="1050.84" y="599.40" angle="258.04" type="DEFAULT_VEHTYPE" speed="13.71" pos="71.16" lane="a190_0" slope="0.00"/>
    </timestep>
    <timestep time="73.00">
        <vehicle id="0" x="1665.69" y="1139.37" angle="295.59" type="DEFAULT_VEHTYPE" speed="14.36" pos="116.28" lane="b12_1" slope="0.00"/>
        <vehicle id="1" x="1802.37" y="1037.21" angle="359.49" type="DEFAULT_VEHTYPE" speed="0.00" pos="189.30" lane="a204a[0]_1" slope="0.00"/>
        <vehicle id="2" x="1037.80" y="596.64" angle="258.04" type="DEFAULT_VEHTYPE" speed="13.33" pos="84.48" lane="a190_0" slope="0.00"/>
        <vehicle id="3" x="1938.53" y="491.65" angle="346.62" type="DEFAULT_VEHTYPE" speed="0.00" pos="5.10" lane="a43[1]_0" slope="0.00"/>
    </timestep>
    <timestep time="74.00">
        <vehicle id="0" x="1653.53" y="1145.19" angle="295.59" type="DEFAULT_VEHTYPE" speed="13.48" pos="129.77" lane="b12_1" slope="0.00"/>
        <vehicle id="1" x="1802.37" y="1037.21" angle="359.49" type="DEFAULT_VEHTYPE" speed="0.00" pos="189.30" lane="a204a[0]_1" slope="0.00"/>
        <vehicle id="2" x="1025.02" y="593.93" angle="258.04" type="DEFAULT_VEHTYPE" speed="13.07" pos="97.55" lane="a190_0" slope="0.00"/>
        <vehicle id="3" x="1938.07" y="493.60" angle="346.62" type="DEFAULT_VEHTYPE" speed="2.00" pos="7.10" lane="a43[1]_0" slope="0.00"/>
    </timestep>
    <timestep time="75.00">
        <vehicle id="0" x="1639.00" y="1148.61" angle="295.59" type="DEFAULT_VEHTYPE" speed="14.60" pos="144.37" lane="b12_2" slope="0.00"/>
        <vehicle id="1" x="1802.37" y="1037.21" angle="359.49" type="DEFAULT_VEHTYPE" speed="0.00" pos="189.30" lane="a204a[0]_1" slope="0.00"/>
        <vehicle id="2" x="1011.30" y="591.03" angle="258.04" type="DEFAULT_VEHTYPE" speed="14.03" pos="111.57" lane="a190_0" slope="0.00"/>
        <vehicle id="3" x="1937.27" y="496.95" angle="346.62" type="DEFAULT_VEHTYPE" speed="3.44" pos="10.54" lane="a43[1]_0" slope="0.00"/>
    </timestep>
    <timestep time="76.00">
        <vehicle id="0" x="1626.48" y="1154.60" angle="295.59" type="DEFAULT_VEHTYPE" speed="13.88" pos="158.25" lane="b12_2" slope="0.00"/>
        <vehicle id="1" x="1802.37" y="1037.21" angle="359.49" type="DEFAULT_VEHTYPE" speed="0.00" pos="189.30" lane="a204a[0]_1" slope="0.00"/>
        <vehicle id="2" x="998.43" y="588.30" angle="258.04" type="DEFAULT_VEHTYPE" speed="13.16" pos="124.73" lane="a190_0" slope="0.00"/>
        <vehicle id="3" x="1935.88" y="502.79" angle="346.62" type="DEFAULT_VEHTYPE" speed="6.01" pos="16.55" lane="a43[1]_0" slope="0.00"/>
    </timestep>
    <timestep time="77.00">
        <vehicle id="0" x="1613.55" y="1160.79" angle="295.59" type="DEFAULT_VEHTYPE" speed="14.34" pos="172.59" lane="b12_2" slope="0.00"/>
        <vehicle id="1" x="1802.37" y="1037.21" angle="359.49" type="DEFAULT_VEHTYPE" speed="0.00" pos="189.30" lane="a204a[0]_1" slope="0.00"/>
        <vehicle id="2" x="985.29" y="585.51" angle="258.04" type="DEFAULT_VEHTYPE" speed="13.43" pos="138.16" lane="a190_0" slope="0.00"/>
        <vehicle id="3" x="1934.03" y="510.58" angle="346.62" type="DEFAULT_VEHTYPE" speed="8.00" pos="24.54" lane="a43[1]_0" slope="0.00"/>
    </timestep>
    <timestep time="78.00">
        <vehicle id="0" x="1601.10" y="1166.76" angle="295.59" type="DEFAULT_VEHTYPE" speed="13.80" pos="186.39" lane="b12_2" slope="0.00"/>
        <vehicle id="1" x="1802.37" y="1037.21" angle="359.49" type="DEFAULT_VEHTYPE" speed="0.00" pos="189.30" lane="a204a[0]_1" slope="0.00"/>
        <vehicle id="2" x="972.14" y="582.73" angle="258.04" type="DEFAULT_VEHTYPE" speed="13.45" pos="151.61" lane="a190_0" slope="0.00"/>
        <vehicle id="3" x="1931.72" y="520.27" angle="346.62" type="DEFAULT_VEHTYPE" speed="9.96" pos="34.50" lane="a43[1]_0" slope="0.00"/>
    </timestep>
    <timestep time="79.00">
        <vehicle id="0" x="1588.32" y="1172.88" angle="295.59" type="DEFAULT_VEHTYPE" speed="14.18" pos="200.57" lane="b12_2" slope="0.00"/>
        <vehicle id="1" x="1802.37" y="1037.21" angle="359.49" type="DEFAULT_VEHTYPE" speed="0.00" pos="189.30" lane="a204a[0]_1" slope="0.00"/>
        <vehicle id="2" x="959.13" y="579.97" angle="258.04" type="DEFAULT_VEHTYPE" speed="13.30" pos="164.91" lane="a190_0" slope="0.00"/>
        <vehicle id="3" x="1928.83" y="532.44" angle="346.62" type="DEFAULT_VEHTYPE" speed="12.51" pos="47.01" lane="a43[1]_0" slope="0.00"/>
    </timestep>
    <timestep time="80.00">