<?xml version="1.0" encoding="UTF-8"?>

<!-- generated on 2025-03-21 17:55:49 by Eclipse SUMO sumo Version 1.21.0
<sumoConfiguration xmlns:xsi="http://www.w3.org/2001/XMLSchema-instance" xsi:noNamespaceSchemaLocation="http://sumo.dlr.de/xsd/sumoConfiguration.xsd">

    <input>
        <net-file value="${STATICPATH}/joined_lanes.net.xml"/>
        <route-files value="${SIMULATIONPATH}/generatedRoutes.rou.xml"/>
        <additional-files value="${STATICPATH}/detectors.add.xml,${STATICPATH}/joined_vtypes.add.xml,${STATICPATH}/joined_tls.add.xml"/>
    </input>

    <output>
        <fcd-output value="${SIMULATIONPATH}/fcd.xml"/>
        <queue-output value="${SIMULATIONPATH}/queue.xml"/>
        <summary-output value="${SIMULATIONPATH}/summary.xml"/>
        <tripinfo-output value="${SIMULATIONPATH}/tripinfos.xml"/>
        <vehroute-output value="${SIMULATIONPATH}/vehroute.xml"/>
        <save-state.prefix value="configs\state"/>
    </output>

    <processing>
        <ignore-junction-blocker value="1"/>
        <ignore-route-errors value="true"/>
        <time-to-teleport value="-1"/>
    </processing>

    <report>
        <log value="C:/Users/fabio/Desktop/sumo_log.txt"/>
        <no-step-log value="true"/>
    </report>

    <emissions>
        <phemlight-path value="configs\./PHEMlight/"/>
    </emissions>

    <traci_server>
        <remote-port value="60242"/>
    </traci_server>

</sumoConfiguration>
-->

<tripinfos xmlns:xsi="http://www.w3.org/2001/XMLSchema-instance" xsi:noNamespaceSchemaLocation="http://sumo.dlr.de/xsd/tripinfo_file.xsd">
    <tripinfo id="2" depart="64.00" departLane="a190_0" departPos="5.10" departSpeed="0.00" departDelay="0.32" arrival="185.00" arrivalLane="b2[1][1][1]b_0" arrivalPos="325.74" arrivalSpeed="13.57" duration="121.00" routeLength="1535.55" waitingTime="0.00" waitingCount="0" stopTime="0.00" timeLoss="9.92" rerouteNo="0" devices="vehroute_2 tripinfo_2 fcd_2" vType="DEFAULT_VEHTYPE" speedFactor="1.01" vaporized=""/>
    <tripinfo id="4" depart="83.00" departLane="a20001+87[1][0]_0" departPos="5.10" departSpeed="0.00" departDelay="0.58" arrival="261.00" arrivalLane="ba1[1]_2" arrivalPos="0.20" arrivalSpeed="12.40" duration="178.00" routeLength="1571.77" waitingTime="29.00" waitingCount="3" stopTime="0.00" timeLoss="64.28" rerouteNo="0" devices="vehroute_4 tripinfo_4 fcd_4" vType="DEFAULT_VEHTYPE" speedFactor="1.03" vaporized=""/>
    <tripinfo id="0" depart="2.00" departLane="a55_0" departPos="5.10" departSpeed="0.00" departDelay="0.80" arrival="296.00" arrivalLane="a77[0]_0" arrivalPos="66.48" arrivalSpeed="14.59" duration="294.00" routeLength="2953.25" waitingTime="53.00" waitingCount="3" stopTime="0.00" timeLoss="89.68" rerouteNo="0" devices="vehroute_0 tripinfo_0 fcd_0" vType="DEFAULT_VEHTYPE" speedFactor="1.06" vaporized=""/>
    <tripinfo id="3" depart="73.00" departLane="a43[1]_0" departPos="5.10" departSpeed="0.00" departDelay="0.91" arrival="348.00" arrivalLane="b3[1]b_0" arrivalPos="239.77" arrivalSpeed="15.00" duration="275.00" routeLength="2616.69" waitingTime="64.00" waitingCount="3" stopTime="0.00" timeLoss="99.82" rerouteNo="0" devices="vehroute_3 tripinfo_3 fcd_3" vType="DEFAULT_VEHTYPE" speedFactor="1.08" vaporized=""/>
    <tripinfo id="1" depart="5.00" departLane="a43[1]_0" departPos="5.10" departSpeed="0.00" departDelay="0.55" arrival="358.00" arrivalLane="b3[1]b_0" arrivalPos="239.77" arrivalSpeed="12.06" duration="353.00" routeLength="2616.69" waitingTime="118.00" waitingCount="3" stopTime="0.00" timeLoss="151.31" rerouteNo="0" devices="vehroute_1 tripinfo_1 fcd_1" vType="DEFAULT_VEHTYPE" speedFactor="0.94" vaporized=""/>
    <tripinfo id="5" depart="228.00" departLane="a212_0" departPos="5.10" departSpeed="0.00" departDelay="0.81" arrival="447.00" arrivalLane="b53_0" arrivalPos="63.75" arrivalSpeed="11.27" duration="219.00" routeLength="1890.33" waitingTime="20.00" waitingCount="3" stopTime="0.00" timeLoss="50.96" rerouteNo="0" devices="vehroute_5 tripinfo_5 fcd_5" vType="DEFAULT_VEHTYPE" speedFactor="0.83" vaporized=""/>
    <tripinfo id="6" depart="269.00" departLane="a210_0" departPos="5.10" departSpeed="0.00" departDelay="0.33" arrival="486.00" arrivalLane="b2[1][1][1]b_0" arrivalPos="325.74" arrivalSpeed="14.06" duration="217.00" routeLength="2611.68" waitingTime="9.00" waitingCount="1" stopTime="0.00" timeLoss="35.97" rerouteNo="0" devices="vehroute_6 tripinfo_6 fcd_6" vType="DEFAULT_VEHTYPE" speedFactor="1.05" vaporized=""/>
    <tripinfo id="7" depart="288.00" departLane="a203[0]_0" departPos="5.10" departSpeed="0.00" departDelay="0.12" arrival="510.00" arrivalLane="a125_0" arrivalPos="12.16" arrivalSpeed="10.31" duration="222.00" routeLength="1878.97" waitingTime="36.00" waitingCount="3" stopTime="0.00" timeLoss="67.73" rerouteNo="0" devices="vehroute_7 tripinfo_7 fcd_7" vType="DEFAULT_VEHTYPE" speedFactor="0.89" vaporized=""/>
    <tripinfo id="10" depart="432.00" departLane="a203[0]_0" departPos="5.10" departSpeed="0.00" departDelay="0.62" arrival="629.00" arrivalLane="a125_0" arrivalPos="12.16" arrivalSpeed="12.21" duration="197.00" routeLength="1875.46" waitingTime="35.00" waitingCount="2" stopTime="0.00" timeLoss="71.26" rerouteNo="0" devices="vehroute_10 tripinfo_10 fcd_10" vType="DEFAULT_VEHTYPE" speedFactor="1.09" vaporized=""/>
    <tripinfo id="11" depart="439.00" departLane="a203[0]_0" departPos="5.10" departSpeed="0.00" departDelay="0.66" arrival="631.00" arrivalLane="a125_0" arrivalPos="12.16" arrivalSpeed="11.05" duration="192.00" routeLength="1875.46" waitingTime="32.00" waitingCount="2" stopTime="0.00" timeLoss="58.14" rerouteNo="0" devices="vehroute_11 tripinfo_11 fcd_11" vType="DEFAULT_VEHTYPE" speedFactor="1.03" vaporized=""/>
    <tripinfo id="12" depart="440.00" departLane="a212_0" departPos="5.10" departSpeed="0.00" departDelay="0.67" arrival="648.00" arrivalLane="b53_0" arrivalPos="63.75" arrivalSpeed="14.14" duration="208.00" routeLength="1890.33" waitingTime="49.00" waitingCount="2" stopTime="0.00" timeLoss="75.70" rerouteNo="0" devices="vehroute_12 tripinfo_12 fcd_12" vType="DEFAULT_VEHTYPE" speedFactor="1.05" vaporized=""/>
    <tripinfo id="13" depart="502.00" departLane="a203[0]_0" departPos="5.10" departSpeed="0.00" departDelay="0.89" arrival="692.00" arrivalLane="a125_0" arrivalPos="12.16" arrivalSpeed="12.67" duration="190.00" routeLength="1878.97" waitingTime="38.00" waitingCount="3" stopTime="0.00" timeLoss="67.68" rerouteNo="0" devices="vehroute_13 tripinfo_13 fcd_13" vType="DEFAULT_VEHTYPE" speedFactor="1.12" vaporized=""/>
    <tripinfo id="8" depart="335.00" departLane="a55_0" departPos="5.10" departSpeed="0.00" departDelay="0.46" arrival="722.00" arrivalLane="a77[0]_0" arrivalPos="66.48" arrivalSpeed="11.93" duration="387.00" routeLength="2953.25" waitingTime="111.00" waitingCount="5" stopTime="0.00" timeLoss="156.75" rerouteNo="0" devices="vehroute_8 tripinfo_8 fcd_8" vType="DEFAULT_VEHTYPE" speedFactor="0.94" vaporized=""/>
    <tripinfo id="17" depart="583.00" departLane="a203[0]_0" departPos="5.10" departSpeed="0.00" departDelay="0.65" arrival="769.00" arrivalLane="a125_0" arrivalPos="12.16" arrivalSpeed="12.40" duration="186.00" routeLength="1875.46" waitingTime="10.00" waitingCount="3" stopTime="0.00" timeLoss="39.72" rerouteNo="0" devices="vehroute_17 tripinfo_17 fcd_17" vType="DEFAULT_VEHTYPE" speedFactor="0.94" vaporized=""/>
    <tripinfo id="9" depart="424.00" departLane="a201_0" departPos="5.10" departSpeed="0.00" departDelay="0.46" arrival="770.00" arrivalLane="b2[1][1][1]b_0" arrivalPos="325.74" arrivalSpeed="10.89" duration="346.00" routeLength="2611.01" waitingTime="82.00" waitingCount="4" stopTime="0.00" timeLoss="124.02" rerouteNo="0" devices="vehroute_9 tripinfo_9 fcd_9" vType="DEFAULT_VEHTYPE" speedFactor="0.86" vaporized=""/>
    <tripinfo id="16" depart="574.00" departLane="a203[0]_0" departPos="5.10" departSpeed="0.00" departDelay="0.51" arrival="776.00" arrivalLane="a125_0" arrivalPos="12.16" arrivalSpeed="9.86" duration="202.00" routeLength="1875.46" waitingTime="17.00" waitingCount="2" stopTime="0.00" timeLoss="46.44" rerouteNo="0" devices="vehroute_16 tripinfo_16 fcd_16" vType="DEFAULT_VEHTYPE" speedFactor="0.88" vaporized=""/>
    <tripinfo id="19" depart="640.00" departLane="a203[0]_0" departPos="5.10" departSpeed="0.00" departDelay="0.04" arrival="828.00" arrivalLane="a125_0" arrivalPos="12.16" arrivalSpeed="12.66" duration="188.00" routeLength="1875.46" waitingTime="34.00" waitingCount="3" stopTime="0.00" timeLoss="69.32" rerouteNo="0" devices="vehroute_19 tripinfo_19 fcd_19" vType="DEFAULT_VEHTYPE" speedFactor="1.16" vaporized=""/>
    <tripinfo id="14" depart="509.00" departLane="a43[1]_0" departPos="5.10" departSpeed="0.00" departDelay="0.40" arrival="840.00" arrivalLane="b3[1]b_0" arrivalPos="239.77" arrivalSpeed="13.11" duration="331.00" routeLength="2616.69" waitingTime="108.00" waitingCount="4" stopTime="0.00" timeLoss="139.62" rerouteNo="0" devices="vehroute_14 tripinfo_14 fcd_14" vType="DEFAULT_VEHTYPE" speedFactor="0.99" vaporized=""/>
    <tripinfo id="18" depart="615.00" departLane="a203[0]_0" departPos="5.10" departSpeed="0.00" departDelay="0.61" arrival="873.00" arrivalLane="a125_0" arrivalPos="12.16" arrivalSpeed="10.97" duration="258.00" routeLength="1878.97" waitingTime="74.00" waitingCount="4" stopTime="0.00" timeLoss="110.86" rerouteNo="0" devices="vehroute_18 tripinfo_18 fcd_18" vType="DEFAULT_VEHTYPE" speedFactor="0.94" vaporized=""/>
    <tripinfo id="22" depart="764.00" departLane="b34[1][1]_0" departPos="5.10" departSpeed="0.00" departDelay="0.86" arrival="881.00" arrivalLane="b70_0" arrivalPos="60.87" arrivalSpeed="13.02" duration="117.00" routeLength="1381.10" waitingTime="0.00" waitingCount="0" stopTime="0.00" timeLoss="12.53" rerouteNo="0" devices="vehroute_22 tripinfo_22 fcd_22" vType="DEFAULT_VEHTYPE" speedFactor="0.97" vaporized=""/>
    <tripinfo id="15" depart="554.00" departLane="a131_0" departPos="5.10" departSpeed="0.00" departDelay="0.35" arrival="920.00" arrivalLane="b11[0]_0" arrivalPos="90.93" arrivalSpeed="12.57" duration="366.00" routeLength="3341.90" waitingTime="57.00" waitingCount="4" stopTime="0.00" timeLoss="100.75" rerouteNo="0" devices="vehroute_15 tripinfo_15 fcd_15" vType="DEFAULT_VEHTYPE" speedFactor="0.93" vaporized=""/>
    <tripinfo id="20" depart="691.00" departLane="a203[0]_0" departPos="5.10" departSpeed="0.00" departDelay="0.58" arrival="929.00" arrivalLane="a125_0" arrivalPos="12.16" arrivalSpeed="11.54" duration="238.00" routeLength="1878.97" waitingTime="68.00" waitingCount="3" stopTime="0.00" timeLoss="103.26" rerouteNo="0" devices="vehroute_20 tripinfo_20 fcd_20" vType="DEFAULT_VEHTYPE" speedFactor="1.02" vaporized=""/>
    <tripinfo id="28" depart="878.00" departLane="b34[1][1]_0" departPos="5.10" departSpeed="0.00" departDelay="0.84" arrival="1014.00" arrivalLane="b70_0" arrivalPos="60.87" arrivalSpeed="15.25" duration="136.00" routeLength="1381.10" waitingTime="20.00" waitingCount="2" stopTime="0.00" timeLoss="45.59" rerouteNo="0" devices="vehroute_28 tripinfo_28 fcd_28" vType="DEFAULT_VEHTYPE" speedFactor="1.13" vaporized=""/>
    <tripinfo id="24" depart="819.00" departLane="a210_0" departPos="5.10" departSpeed="0.00" departDelay="0.51" arrival="1023.00" arrivalLane="b35[1][1][0]_0" arrivalPos="10.98" arrivalSpeed="8.54" duration="204.00" routeLength="1899.48" waitingTime="10.00" waitingCount="2" stopTime="0.00" timeLoss="35.11" rerouteNo="0" devices="vehroute_24 tripinfo_24 fcd_24" vType="DEFAULT_VEHTYPE" speedFactor="0.83" vaporized=""/>
    <tripinfo id="21" depart="763.00" departLane="a43[1]_0" departPos="5.10" departSpeed="0.00" departDelay="0.68" arrival="1028.00" arrivalLane="b3[1]b_0" arrivalPos="239.77" arrivalSpeed="13.71" duration="265.00" routeLength="2616.69" waitingTime="42.00" waitingCount="4" stopTime="0.00" timeLoss="77.73" rerouteNo="0" devices="vehroute_21 tripinfo_21 fcd_21" vType="DEFAULT_VEHTYPE" speedFactor="1.01" vaporized=""/>
    <tripinfo id="26" depart="838.00" departLane="a203[0]_0" departPos="5.10" departSpeed="0.00" departDelay="0.82" arrival="1035.00" arrivalLane="a125_0" arrivalPos="12.16" arrivalSpeed="10.38" duration="197.00" routeLength="1875.46" waitingTime="23.00" waitingCount="2" stopTime="0.00" timeLoss="48.21" rerouteNo="0" devices="vehroute_26 tripinfo_26 fcd_26" vType="DEFAULT_VEHTYPE" speedFactor="0.92" vaporized=""/>
    <tripinfo id="25" depart="825.00" departLane="a212_0" departPos="5.10" departSpeed="0.00" departDelay="0.98" arrival="1054.00" arrivalLane="b53_0" arrivalPos="63.75" arrivalSpeed="11.07" duration="229.00" routeLength="1890.33" waitingTime="34.00" waitingCount="2" stopTime="0.00" timeLoss="69.74" rerouteNo="0" devices="vehroute_25 tripinfo_25 fcd_25" vType="DEFAULT_VEHTYPE" speedFactor="0.87" vaporized=""/>
    <tripinfo id="31" depart="1000.00" departLane="a190_0" departPos="5.10" departSpeed="0.00" departDelay="0.09" arrival="1147.00" arrivalLane="b2[1][1][1]b_0" arrivalPos="325.74" arrivalSpeed="16.03" duration="147.00" routeLength="1535.55" waitingTime="35.00" waitingCount="1" stopTime="0.00" timeLoss="49.04" rerouteNo="0" devices="vehroute_31 tripinfo_31 fcd_31" vType="DEFAULT_VEHTYPE" speedFactor="1.15" vaporized=""/>
    <tripinfo id="27" depart="861.00" departLane="a203[0]_0" departPos="5.10" departSpeed="0.00" departDelay="0.40" arrival="1148.00" arrivalLane="a125_0" arrivalPos="12.16" arrivalSpeed="11.39" duration="287.00" routeLength="1878.97" waitingTime="105.00" waitingCount="4" stopTime="0.00" timeLoss="142.47" rerouteNo="0" devices="vehroute_27 tripinfo_27 fcd_27" vType="DEFAULT_VEHTYPE" speedFactor="0.95" vaporized=""/>
    <tripinfo id="30" depart="956.00" departLane="a203[0]_0" departPos="5.10" departSpeed="0.00" departDelay="0.61" arrival="1150.00" arrivalLane="a125_0" arrivalPos="12.16" arrivalSpeed="13.64" duration="194.00" routeLength="1878.97" waitingTime="45.00" waitingCount="3" stopTime="0.00" timeLoss="77.42" rerouteNo="0" devices="vehroute_30 tripinfo_30 fcd_30" vType="DEFAULT_VEHTYPE" speedFactor="1.18" vaporized=""/>
    <tripinfo id="32" depart="1007.00" departLane="a190_0" departPos="5.10" departSpeed="0.00" departDelay="0.07" arrival="1155.00" arrivalLane="b2[1][1][1]b_0" arrivalPos="325.74" arrivalSpeed="13.74" duration="148.00" routeLength="1529.12" waitingTime="21.00" waitingCount="1" stopTime="0.00" timeLoss="37.36" rerouteNo="0" devices="vehroute_32 tripinfo_32 fcd_32" vType="DEFAULT_VEHTYPE" speedFactor="1.01" vaporized=""/>
    <tripinfo id="23" depart="806.00" departLane="a43[1]_0" departPos="5.10" departSpeed="0.00" departDelay="0.99" arrival="1162.00" arrivalLane="b3[1]b_0" arrivalPos="239.77" arrivalSpeed="11.63" duration="356.00" routeLength="2616.69" waitingTime="106.00" waitingCount="4" stopTime="0.00" timeLoss="143.43" rerouteNo="0" devices="vehroute_23 tripinfo_23 fcd_23" vType="DEFAULT_VEHTYPE" speedFactor="0.89" vaporized=""/>
    <tripinfo id="33" depart="1071.00" departLane="a212_0" departPos="5.10" departSpeed="0.00" departDelay="0.52" arrival="1277.00" arrivalLane="b53_0" arrivalPos="63.75" arrivalSpeed="15.37" duration="206.00" routeLength="1890.33" waitingTime="51.00" waitingCount="3" stopTime="0.00" timeLoss="86.93" rerouteNo="0" devices="vehroute_33 tripinfo_33 fcd_33" vType="DEFAULT_VEHTYPE" speedFactor="1.17" vaporized=""/>
    <tripinfo id="34" depart="1084.00" departLane="a190_0" departPos="5.10" departSpeed="0.00" departDelay="0.93" arrival="1279.00" arrivalLane="b2[1][1][1]b_0" arrivalPos="325.74" arrivalSpeed="12.54" duration="195.00" routeLength="1535.55" waitingTime="68.00" waitingCount="1" stopTime="0.00" timeLoss="82.03" rerouteNo="0" devices="vehroute_34 tripinfo_34 fcd_34" vType="DEFAULT_VEHTYPE" speedFactor="0.99" vaporized=""/>
    <tripinfo id="36" depart="1144.00" departLane="a190_0" departPos="5.10" departSpeed="0.00" departDelay="0.89" arrival="1280.00" arrivalLane="b2[1][1][1]b_1" arrivalPos="325.74" arrivalSpeed="13.28" duration="136.00" routeLength="1529.12" waitingTime="7.00" waitingCount="1" stopTime="0.00" timeLoss="21.68" rerouteNo="0" devices="vehroute_36 tripinfo_36 fcd_36" vType="DEFAULT_VEHTYPE" speedFactor="0.97" vaporized=""/>
    <tripinfo id="29" depart="926.00" departLane="a55_0" departPos="5.10" departSpeed="0.00" departDelay="0.63" arrival="1289.00" arrivalLane="a77[0]_0" arrivalPos="66.48" arrivalSpeed="12.53" duration="363.00" routeLength="2953.25" waitingTime="90.00" waitingCount="3" stopTime="0.00" timeLoss="130.91" rerouteNo="0" devices="vehroute_29 tripinfo_29 fcd_29" vType="DEFAULT_VEHTYPE" speedFactor="0.93" vaporized=""/>
    <tripinfo id="37" depart="1162.00" departLane="a203[0]_0" departPos="5.10" departSpeed="0.00" departDelay="0.90" arrival="1384.00" arrivalLane="a125_0" arrivalPos="12.16" arrivalSpeed="13.82" duration="222.00" routeLength="1878.97" waitingTime="66.00" waitingCount="4" stopTime="0.00" timeLoss="106.14" rerouteNo="0" devices="vehroute_37 tripinfo_37 fcd_37" vType="DEFAULT_VEHTYPE" speedFactor="1.18" vaporized=""/>
    <tripinfo id="38" depart="1231.00" departLane="a190_0" departPos="5.10" departSpeed="0.00" departDelay="0.97" arrival="1396.00" arrivalLane="b2[1][1][1]b_0" arrivalPos="325.74" arrivalSpeed="14.01" duration="165.00" routeLength="1535.55" waitingTime="48.00" waitingCount="1" stopTime="0.00" timeLoss="63.26" rerouteNo="0" devices="vehroute_38 tripinfo_38 fcd_38" vType="DEFAULT_VEHTYPE" speedFactor="1.10" vaporized=""/>
    <tripinfo id="39" depart="1247.00" departLane="a190_0" departPos="5.10" departSpeed="0.00" departDelay="0.24" arrival="1409.00" arrivalLane="b2[1][1][1]b_0" arrivalPos="325.74" arrivalSpeed="12.01" duration="162.00" routeLength="1529.12" waitingTime="23.00" waitingCount="1" stopTime="0.00" timeLoss="38.14" rerouteNo="0" devices="vehroute_39 tripinfo_39 fcd_39" vType="DEFAULT_VEHTYPE" speedFactor="0.90" vaporized=""/>
    <tripinfo id="35" depart="1130.00" departLane="a55_0" departPos="5.10" departSpeed="0.00" departDelay="0.58" arrival="1524.00" arrivalLane="a77[0]_0" arrivalPos="66.48" arrivalSpeed="14.09" duration="394.00" routeLength="2953.25" waitingTime="139.00" waitingCount="4" stopTime="0.00" timeLoss="182.34" rerouteNo="0" devices="vehroute_35 tripinfo_35 fcd_35" vType="DEFAULT_VEHTYPE" speedFactor="1.02" vaporized=""/>
    <tripinfo id="40" depart="1314.00" departLane="a16_0" departPos="5.10" departSpeed="0.00" departDelay="0.73" arrival="1594.00" arrivalLane="b2[1][1][1]b_0" arrivalPos="325.74" arrivalSpeed="13.49" duration="280.00" routeLength="2436.68" waitingTime="64.00" waitingCount="4" stopTime="0.00" timeLoss="106.89" rerouteNo="0" devices="vehroute_40 tripinfo_40 fcd_40" vType="DEFAULT_VEHTYPE" speedFactor="1.03" vaporized=""/>
    <tripinfo id="44" depart="1408.00" departLane="a203[0]_0" departPos="5.10" departSpeed="0.00" departDelay="0.25" arrival="1622.00" arrivalLane="a125_0" arrivalPos="12.16" arrivalSpeed="11.02" duration="214.00" routeLength="1878.97" waitingTime="47.00" waitingCount="3" stopTime="0.00" timeLoss="82.72" rerouteNo="0" devices="vehroute_44 tripinfo_44 fcd_44" vType="DEFAULT_VEHTYPE" speedFactor="1.04" vaporized=""/>
    <tripinfo id="42" depart="1378.00" departLane="a55_0" departPos="5.10" departSpeed="0.00" departDelay="0.91" arrival="1641.00" arrivalLane="a77[0]_0" arrivalPos="66.48" arrivalSpeed="14.02" duration="263.00" routeLength="2953.25" waitingTime="27.00" waitingCount="2" stopTime="0.00" timeLoss="66.00" rerouteNo="0" devices="vehroute_42 tripinfo_42 fcd_42" vType="DEFAULT_VEHTYPE" speedFactor="1.09" vaporized=""/>
    <tripinfo id="41" depart="1372.00" departLane="a55_0" departPos="5.10" departSpeed="0.00" departDelay="0.73" arrival="1660.00" arrivalLane="a77[0]_0" arrivalPos="66.48" arrivalSpeed="13.01" duration="288.00" routeLength="2953.25" waitingTime="27.00" waitingCount="2" stopTime="0.00" timeLoss="62.60" rerouteNo="0" devices="vehroute_41 tripinfo_41 fcd_41" vType="DEFAULT_VEHTYPE" speedFactor="0.96" vaporized=""/>
    <tripinfo id="43" depart="1392.00" departLane="a43[1]_0" departPos="5.10" departSpeed="0.00" departDelay="0.74" arrival="1704.00" arrivalLane="b3[1]b_0" arrivalPos="239.77" arrivalSpeed="13.56" duration="312.00" routeLength="2616.69" waitingTime="98.00" waitingCount="3" stopTime="0.00" timeLoss="129.22" rerouteNo="0" devices="vehroute_43 tripinfo_43 fcd_43" vType="DEFAULT_VEHTYPE" speedFactor="1.04" vaporized=""/>
    <tripinfo id="46" depart="1522.00" departLane="a203[0]_0" departPos="5.10" departSpeed="0.00" departDelay="0.32" arrival="1729.00" arrivalLane="b2[1][1][1]b_0" arrivalPos="325.74" arrivalSpeed="12.62" duration="207.00" routeLength="2513.32" waitingTime="2.00" waitingCount="1" stopTime="0.00" timeLoss="23.79" rerouteNo="0" devices="vehroute_46 tripinfo_46 fcd_46" vType="DEFAULT_VEHTYPE" speedFactor="1.00" vaporized=""/>
    <tripinfo id="47" depart="1550.00" departLane="a203[0]_0" departPos="5.10" departSpeed="0.00" departDelay="0.79" arrival="1735.00" arrivalLane="a125_0" arrivalPos="12.16" arrivalSpeed="10.45" duration="185.00" routeLength="1875.46" waitingTime="5.00" waitingCount="2" stopTime="0.00" timeLoss="32.60" rerouteNo="0" devices="vehroute_47 tripinfo_47 fcd_47" vType="DEFAULT_VEHTYPE" speedFactor="0.90" vaporized=""/>
    <tripinfo id="45" depart="1430.00" departLane="a55_0" departPos="5.10" departSpeed="0.00" departDelay="0.16" arrival="1809.00" arrivalLane="a77[0]_0" arrivalPos="66.48" arrivalSpeed="14.95" duration="379.00" routeLength="2953.25" waitingTime="131.00" waitingCount="4" stopTime="0.00" timeLoss="179.64" rerouteNo="0" devices="vehroute_45 tripinfo_45 fcd_45" vType="DEFAULT_VEHTYPE" speedFactor="1.09" vaporized=""/>
    <tripinfo id="51" depart="1745.00" departLane="a203[0]_0" departPos="5.10" departSpeed="0.00" departDelay="0.43" arrival="1898.00" arrivalLane="a125_0" arrivalPos="12.16" arrivalSpeed="13.16" duration="153.00" routeLength="1875.46" waitingTime="11.00" waitingCount="2" stopTime="0.00" timeLoss="35.89" rerouteNo="0" devices="vehroute_51 tripinfo_51 fcd_51" vType="DEFAULT_VEHTYPE" speedFactor="1.17" vaporized=""/>
    <tripinfo id="50" depart="1726.00" departLane="a212_0" departPos="5.10" departSpeed="0.00" departDelay="0.32" arrival="1920.00" arrivalLane="b53_0" arrivalPos="63.75" arrivalSpeed="11.44" duration="194.00" routeLength="1890.33" waitingTime="4.00" waitingCount="2" stopTime="0.00" timeLoss="31.07" rerouteNo="0" devices="vehroute_50 tripinfo_50 fcd_50" vType="DEFAULT_VEHTYPE" speedFactor="0.85" vaporized=""/>
    <tripinfo id="48" depart="1710.00" departLane="a210_0" departPos="5.10" departSpeed="0.00" departDelay="0.41" arrival="1985.00" arrivalLane="b2[1][1][1]b_0" arrivalPos="325.74" arrivalSpeed="11.97" duration="275.00" routeLength="2611.68" waitingTime="31.00" waitingCount="2" stopTime="0.00" timeLoss="59.13" rerouteNo="0" devices="vehroute_48 tripinfo_48 fcd_48" vType="DEFAULT_VEHTYPE" speedFactor="0.88" vaporized=""/>
    <tripinfo id="53" depart="1822.00" departLane="a189[0]_0" departPos="5.07" departSpeed="0.00" departDelay="0.01" arrival="2029.00" arrivalLane="b4[1][1][0]_0" arrivalPos="170.25" arrivalSpeed="14.01" duration="207.00" routeLength="2068.02" waitingTime="31.00" waitingCount="3" stopTime="0.00" timeLoss="67.74" rerouteNo="0" devices="vehroute_53 tripinfo_53 fcd_53" vType="DEFAULT_VEHTYPE" speedFactor="1.10" vaporized=""/>
    <tripinfo id="55" depart="1836.00" departLane="a203[0]_0" departPos="5.10" departSpeed="0.00" departDelay="0.99" arrival="2043.00" arrivalLane="a125_0" arrivalPos="12.16" arrivalSpeed="12.59" duration="207.00" routeLength="1875.46" waitingTime="43.00" waitingCount="2" stopTime="0.00" timeLoss="69.48" rerouteNo="0" devices="vehroute_55 tripinfo_55 fcd_55" vType="DEFAULT_VEHTYPE" speedFactor="1.00" vaporized=""/>
    <tripinfo id="49" depart="1722.00" departLane="a43[1]_0" departPos="5.10" departSpeed="0.00" departDelay="0.36" arrival="2046.00" arrivalLane="b3[1]b_0" arrivalPos="239.77" arrivalSpeed="11.00" duration="324.00" routeLength="2616.69" waitingTime="71.00" waitingCount="3" stopTime="0.00" timeLoss="101.77" rerouteNo="0" devices="vehroute_49 tripinfo_49 fcd_49" vType="DEFAULT_VEHTYPE" speedFactor="0.85" vaporized=""/>
    <tripinfo id="52" depart="1805.00" departLane="a203[0]_0" departPos="5.10" departSpeed="0.00" departDelay="0.85" arrival="2046.00" arrivalLane="a125_0" arrivalPos="12.16" arrivalSpeed="10.90" duration="241.00" routeLength="1878.97" waitingTime="63.00" waitingCount="4" stopTime="0.00" timeLoss="105.56" rerouteNo="0" devices="vehroute_52 tripinfo_52 fcd_52" vType="DEFAULT_VEHTYPE" speedFactor="1.02" vaporized=""/>
    <tripinfo id="56" depart="1917.00" departLane="b34[1][1]_0" departPos="5.10" departSpeed="0.00" departDelay="0.07" arrival="2107.00" arrivalLane="b70_0" arrivalPos="60.87" arrivalSpeed="12.18" duration="190.00" routeLength="1381.10" waitingTime="50.00" waitingCount="3" stopTime="0.00" timeLoss="76.81" rerouteNo="0" devices="vehroute_56 tripinfo_56 fcd_56" vType="DEFAULT_VEHTYPE" speedFactor="0.90" vaporized=""/>
    <tripinfo id="57" depart="1944.00" departLane="a210_0" departPos="5.10" departSpeed="0.00" departDelay="0.96" arrival="2129.00" arrivalLane="b35[1][1][0]_0" arrivalPos="10.98" arrivalSpeed="10.89" duration="185.00" routeLength="1896.52" waitingTime="32.00" waitingCount="3" stopTime="0.00" timeLoss="63.30" rerouteNo="0" devices="vehroute_57 tripinfo_57 fcd_57" vType="DEFAULT_VEHTYPE" speedFactor="1.14" vaporized=""/>
    <tripinfo id="54" depart="1825.00" departLane="a55_0" departPos="5.10" departSpeed="0.00" departDelay="0.38" arrival="2142.00" arrivalLane="a77[0]_0" arrivalPos="66.48" arrivalSpeed="13.35" duration="317.00" routeLength="2953.25" waitingTime="68.00" waitingCount="2" stopTime="0.00" timeLoss="101.59" rerouteNo="0" devices="vehroute_54 tripinfo_54 fcd_54" vType="DEFAULT_VEHTYPE" speedFactor="1.00" vaporized=""/>
    <tripinfo id="60" depart="2063.00" departLane="a203[0]_0" departPos="5.10" departSpeed="0.00" departDelay="0.05" arrival="2211.00" arrivalLane="a125_0" arrivalPos="12.16" arrivalSpeed="11.90" duration="148.00" routeLength="1878.97" waitingTime="0.00" waitingCount="0" stopTime="0.00" timeLoss="21.64" rerouteNo="0" devices="vehroute_60 tripinfo_60 fcd_60" vType="DEFAULT_VEHTYPE" speedFactor="1.08" vaporized=""/>
    <tripinfo id="62" depart="2071.00" departLane="a210_0" departPos="5.10" departSpeed="0.00" departDelay="0.41" arrival="2244.00" arrivalLane="b35[1][1][0]_0" arrivalPos="10.98" arrivalSpeed="8.26" duration="173.00" routeLength="1896.52" waitingTime="8.00" waitingCount="3" stopTime="0.00" timeLoss="36.36" rerouteNo="0" devices="vehroute_62 tripinfo_62 fcd_62" vType="DEFAULT_VEHTYPE" speedFactor="1.02" vaporized=""/>
    <tripinfo id="58" depart="2032.00" departLane="a43[1]_0" departPos="5.10" departSpeed="0.00" departDelay="0.01" arrival="2364.00" arrivalLane="b3[1]b_0" arrivalPos="239.77" arrivalSpeed="12.94" duration="332.00" routeLength="2616.69" waitingTime="105.00" waitingCount="5" stopTime="0.00" timeLoss="146.92" rerouteNo="0" devices="vehroute_58 tripinfo_58 fcd_58" vType="DEFAULT_VEHTYPE" speedFactor="1.02" vaporized=""/>
    <tripinfo id="66" depart="2191.00" departLane="a190_0" departPos="5.10" departSpeed="0.00" departDelay="0.45" arrival="2413.00" arrivalLane="b2[1][1][1]b_0" arrivalPos="325.74" arrivalSpeed="11.54" duration="222.00" routeLength="1535.55" waitingTime="76.00" waitingCount="2" stopTime="0.00" timeLoss="98.46" rerouteNo="0" devices="vehroute_66 tripinfo_66 fcd_66" vType="DEFAULT_VEHTYPE" speedFactor="0.91" vaporized=""/>
    <tripinfo id="68" depart="2231.00" departLane="a210_0" departPos="5.10" departSpeed="0.00" departDelay="0.81" arrival="2430.00" arrivalLane="b35[1][1][0]_0" arrivalPos="10.98" arrivalSpeed="7.54" duration="199.00" routeLength="1896.52" waitingTime="34.00" waitingCount="3" stopTime="0.00" timeLoss="65.57" rerouteNo="0" devices="vehroute_68 tripinfo_68 fcd_68" vType="DEFAULT_VEHTYPE" speedFactor="1.04" vaporized=""/>
    <tripinfo id="59" depart="2040.00" departLane="a55_0" departPos="5.10" departSpeed="0.00" departDelay="0.33" arrival="2431.00" arrivalLane="a77[0]_0" arrivalPos="66.48" arrivalSpeed="12.70" duration="391.00" routeLength="2950.03" waitingTime="130.00" waitingCount="3" stopTime="0.00" timeLoss="168.65" rerouteNo="0" devices="vehroute_59 tripinfo_59 fcd_59" vType="DEFAULT_VEHTYPE" speedFactor="0.97" vaporized=""/>
    <tripinfo id="61" depart="2069.00" departLane="a55_0" departPos="5.10" departSpeed="0.00" departDelay="0.49" arrival="2433.00" arrivalLane="a77[0]_0" arrivalPos="66.48" arrivalSpeed="15.47" duration="364.00" routeLength="2953.25" waitingTime="118.00" waitingCount="2" stopTime="0.00" timeLoss="169.64" rerouteNo="0" devices="vehroute_61 tripinfo_61 fcd_61" vType="DEFAULT_VEHTYPE" speedFactor="1.12" vaporized=""/>
    <tripinfo id="64" depart="2170.00" departLane="a203[0]_0" departPos="5.10" departSpeed="0.00" departDelay="0.81" arrival="2442.00" arrivalLane="a125_0" arrivalPos="12.16" arrivalSpeed="11.49" duration="272.00" routeLength="1875.46" waitingTime="82.00" waitingCount="4" stopTime="0.00" timeLoss="125.29" rerouteNo="0" devices="vehroute_64 tripinfo_64 fcd_64" vType="DEFAULT_VEHTYPE" speedFactor="0.94" vaporized=""/>
    <tripinfo id="70" depart="2280.00" departLane="a203[0]_0" departPos="5.10" departSpeed="0.00" departDelay="0.52" arrival="2450.00" arrivalLane="a125_0" arrivalPos="12.16" arrivalSpeed="12.28" duration="170.00" routeLength="1875.46" waitingTime="14.00" waitingCount="2" stopTime="0.00" timeLoss="35.97" rerouteNo="0" devices="vehroute_70 tripinfo_70 fcd_70" vType="DEFAULT_VEHTYPE" speedFactor="1.02" vaporized=""/>