<?xml version="1.0" encoding="UTF-8"?>

<!-- generated on 2025-03-21 17:55:49 by Eclipse SUMO sumo Version 1.21.0
<sumoConfiguration xmlns:xsi="http://www.w3.org/2001/XMLSchema-instance" xsi:noNamespaceSchemaLocation="http://sumo.dlr.de/xsd/sumoConfiguration.xsd">

    <input>
        <net-file value="${STATICPATH}/joined_lanes.net.xml"/>
        <route-files value="${SIMULATIONPATH}/generatedRoutes.rou.xml"/>
        <additional-files value="${STATICPATH}/detectors.add.xml,${STATICPATH}/joined_vtypes.add.xml,${STATICPATH}/joined_tls.add.xml"/>
    </input>

    <output>
        <fcd-output value="${SIMULATIONPATH}/fcd.xml"/>
        <queue-output value="${SIMULATIONPATH}/queue.xml"/>
        <summary-output value="${SIMULATIONPATH}/summary.xml"/>
        <tripinfo-output value="${SIMULATIONPATH}/tripinfos.xml"/>
        <vehroute-output value="${SIMULATIONPATH}/vehroute.xml"/>
        <save-state.prefix value="configs\state"/>
    </output>

    <processing>
        <ignore-junction-blocker value="1"/>
        <ignore-route-errors value="true"/>
        <time-to-teleport value="-1"/>
    </processing>

    <report>
        <log value="C:/Users/fabio/Desktop/sumo_log.txt"/>
        <no-step-log value="true"/>
    </report>

    <emissions>
        <phemlight-path value="configs\./PHEMlight/"/>
    </emissions>

    <traci_server>
        <remote-port value="60242"/>
    </traci_server>

</sumoConfiguration>
-->

<routes xmlns:xsi="http://www.w3.org/2001/XMLSchema-instance" xsi:noNamespaceSchemaLocation="http://sumo.dlr.de/xsd/routes_file.xsd">
    <vehicle id="2" depart="64.00" arrival="185.00">
        <route edges="a190 a77[0] a53[1][0] a79 a68 a11 b2[0] b2[1][0] b2[1][1][0] b2[1][1][1] b2[1][1][1]b"/>
    </vehicle>

    <vehicle id="4" depart="83.00" arrival="261.00">
        <route edges="a20001+87[1][0] a87[1][1] am90 am91 a88 a187 a191 a17 a71 b38[0] b38[0]a b37 b26 b26.-170 b18 b20+19a ba1[1]"/>
    </vehicle>

    <vehicle id="0" depart="2.00" arrival="296.00">
        <route edges="a55 a55b a125 b12 b50[0] b50[1] b50[1]a a181 a18 a17 a71 a67 a80 a127 a77[1][0] a77ab a77bc a77cd a53cd a53[0] a78[1][1] a189[0] a189[1][0]+20000 a189[1][1] a188 a87[0] a20001+87[1][0] a87[1][1] am90 am91 a88 a187 a190 a77[0]"/>
    </vehicle>

    <vehicle id="3" depart="73.00" arrival="348.00">
        <route edges="a43[1] a201 a201c a204a[0] a124 b12 b56[0] b56[1][0] b56[1][1] b5[1][0]+66 b5[1][1][1] b8 b3[1] b3[1]b"/>
    </vehicle>

    <vehicle id="1" depart="5.00" arrival="358.00">
        <route edges="a43[1] a201 a201c a204a[0] a124 b12 b56[0] b56[1][0] b56[1][1] b5[1][0]+66 b5[1][1][1] b8 b3[1] b3[1]b"/>
    </vehicle>

    <vehicle id="5" depart="228.00" arrival="447.00">
        <route edges="a212 a10 a13 a104 a24 a22 a59 a53cd a53[0] a53[1][0] a79 a68 a11 b38[0] b38[0]a b38[1][0] b96 b49[1] b55 b53"/>
    </vehicle>

    <vehicle id="6" depart="269.00" arrival="486.00">
        <route edges="a210 a43[0] a43[1] a115 a110 a185 a92 a90 am91 a88 a187 a191 a17 a71 b2[0] b2[1][0] b2[1][1][0] b2[1][1][1] b2[1][1][1]b"/>
    </vehicle>

    <vehicle id="7" depart="288.00" arrival="510.00">
        <route edges="a203[0] a203[1] a203[1]b a202 a34 a134 a134b a133 a31 a201 a201c a204a[0] a204b[0] a204[1][0] a125"/>
    </vehicle>

    <vehicle id="10" depart="432.00" arrival="629.00">
        <route edges="a203[0] a203[1] a203[1]b a202 a34 a134 a134b a133 a31 a201 a201c a204a[0] a204b[0] a204[1][0] a125"/>
    </vehicle>

    <vehicle id="11" depart="439.00" arrival="631.00">
        <route edges="a203[0] a203[1] a203[1]b a202 a34 a134 a134b a133 a31 a201 a201c a204a[0] a204b[0] a204[1][0] a125"/>
    </vehicle>

    <vehicle id="12" depart="440.00" arrival="648.00">
        <route edges="a212 a10 a13 a104 a24 a22 a59 a53cd a53[0] a53[1][0] a79 a68 a11 b38[0] b38[0]a b38[1][0] b96 b49[1] b55 b53"/>
    </vehicle>

    <vehicle id="13" depart="502.00" arrival="692.00">
        <route edges="a203[0] a203[1] a203[1]b a202 a34 a134 a134b a133 a31 a201 a201c a204a[0] a204b[0] a204[1][0] a125"/>
    </vehicle>

    <vehicle id="8" depart="335.00" arrival="722.00">
        <route edges="a55 a55b a125 b12 b50[0] b50[1] b50[1]a a181 a18 a17 a71 a67 a80 a127 a77[1][0] a77ab a77bc a77cd a53cd a53[0] a78[1][1] a189[0] a189[1][0]+20000 a189[1][1] a188 a87[0] a20001+87[1][0] a87[1][1] am90 am91 a88 a187 a190 a77[0]"/>
    </vehicle>

    <vehicle id="17" depart="583.00" arrival="769.00">
        <route edges="a203[0] a203[1] a203[1]b a202 a34 a134 a134b a133 a31 a201 a201c a204a[0] a204b[0] a204[1][0] a125"/>
    </vehicle>

    <vehicle id="9" depart="424.00" arrival="770.00">
        <route edges="a201 a201c a204a[0] a124 b12 b50[0] b50[1] b50[1]a a181 a18 a17 a71 b2[0] b2[1][0] b2[1][1][0] b2[1][1][1] b2[1][1][1]b"/>
    </vehicle>

    <vehicle id="16" depart="574.00" arrival="776.00">
        <route edges="a203[0] a203[1] a203[1]b a202 a34 a134 a134b a133 a31 a201 a201c a204a[0] a204b[0] a204[1][0] a125"/>
    </vehicle>

    <vehicle id="19" depart="640.00" arrival="828.00">
        <route edges="a203[0] a203[1] a203[1]b a202 a34 a134 a134b a133 a31 a201 a201c a204a[0] a204b[0] a204[1][0] a125"/>
    </vehicle>

    <vehicle id="14" depart="509.00" arrival="840.00">
        <route edges="a43[1] a201 a201c a204a[0] a124 b12 b56[0] b56[1][0] b56[1][1] b5[1][0]+66 b5[1][1][1] b8 b3[1] b3[1]b"/>
    </vehicle>

    <vehicle id="18" depart="615.00" arrival="873.00">
        <route edges="a203[0] a203[1] a203[1]b a202 a34 a134 a134b a133 a31 a201 a201c a204a[0] a204b[0] a204[1][0] a125"/>
    </vehicle>

    <vehicle id="22" depart="764.00" arrival="881.00">
        <route edges="b34[1][1] b2[1][0] b24 b23 b17[0] b17[1] b11[0] b11[1][1] b70"/>
    </vehicle>

    <vehicle id="15" depart="554.00" arrival="920.00">
        <route edges="a131 a119 a116 a46 a201 a201c a204a[0] a124 b12 b56[0] b39[0] b39[1][0] b39[1][1][0] b37 b26 b26.-170 b17[0] b17[1] b11[0]"/>
    </vehicle>

    <vehicle id="20" depart="691.00" arrival="929.00">
        <route edges="a203[0] a203[1] a203[1]b a202 a34 a134 a134b a133 a31 a201 a201c a204a[0] a204b[0] a204[1][0] a125"/>
    </vehicle>

    <vehicle id="28" depart="878.00" arrival="1014.00">
        <route edges="b34[1][1] b2[1][0] b24 b23 b17[0] b17[1] b11[0] b11[1][1] b70"/>
    </vehicle>

    <vehicle id="24" depart="819.00" arrival="1023.00">
        <route edges="a210 a43[0] a43[1] a201 a201c a204a[0] a124 b12 b50[0] b50[1] b49[1] b55 b35[1][1][0]"/>
    </vehicle>

    <vehicle id="21" depart="763.00" arrival="1028.00">
        <route edges="a43[1] a201 a201c a204a[0] a124 b12 b56[0] b56[1][0] b56[1][1] b5[1][0]+66 b5[1][1][1] b8 b3[1] b3[1]b"/>
    </vehicle>

    <vehicle id="26" depart="838.00" arrival="1035.00">
        <route edges="a203[0] a203[1] a203[1]b a202 a34 a134 a134b a133 a31 a201 a201c a204a[0] a204b[0] a204[1][0] a125"/>
    </vehicle>

    <vehicle id="25" depart="825.00" arrival="1054.00">
        <route edges="a212 a10 a13 a104 a24 a22 a59 a53cd a53[0] a53[1][0] a79 a68 a11 b38[0] b38[0]a b38[1][0] b96 b49[1] b55 b53"/>
    </vehicle>

    <vehicle id="31" depart="1000.00" arrival="1147.00">
        <route edges="a190 a77[0] a53[1][0] a79 a68 a11 b2[0] b2[1][0] b2[1][1][0] b2[1][1][1] b2[1][1][1]b"/>
    </vehicle>

    <vehicle id="27" depart="861.00" arrival="1148.00">
        <route edges="a203[0] a203[1] a203[1]b a202 a34 a134 a134b a133 a31 a201 a201c a204a[0] a204b[0] a204[1][0] a125"/>
    </vehicle>

    <vehicle id="30" depart="956.00" arrival="1150.00">
        <route edges="a203[0] a203[1] a203[1]b a202 a34 a134 a134b a133 a31 a201 a201c a204a[0] a204b[0] a204[1][0] a125"/>
    </vehicle>

    <vehicle id="32" depart="1007.00" arrival="1155.00">
        <route edges="a190 a77[0] a53[1][0] a79 a68 a11 b2[0] b2[1][0] b2[1][1][0] b2[1][1][1] b2[1][1][1]b"/>
    </vehicle>

    <vehicle id="23" depart="806.00" arrival="1162.00">
        <route edges="a43[1] a201 a201c a204a[0] a124 b12 b56[0] b56[1][0] b56[1][1] b5[1][0]+66 b5[1][1][1] b8 b3[1] b3[1]b"/>
    </vehicle>

    <vehicle id="33" depart="1071.00" arrival="1277.00">
        <route edges="a212 a10 a13 a104 a24 a22 a59 a53cd a53[0] a53[1][0] a79 a68 a11 b38[0] b38[0]a b38[1][0] b96 b49[1] b55 b53"/>
    </vehicle>

    <vehicle id="34" depart="1084.00" arrival="1279.00">
        <route edges="a190 a77[0] a53[1][0] a79 a68 a11 b2[0] b2[1][0] b2[1][1][0] b2[1][1][1] b2[1][1][1]b"/>
    </vehicle>

    <vehicle id="36" depart="1144.00" arrival="1280.00">
        <route edges="a190 a77[0] a53[1][0] a79 a68 a11 b2[0] b2[1][0] b2[1][1][0] b2[1][1][1] b2[1][1][1]b"/>
    </vehicle>

    <vehicle id="29" depart="926.00" arrival="1289.00">
        <route edges="a55 a55b a125 b12 b50[0] b50[1] b50[1]a a181 a18 a17 a71 a67 a80 a127 a77[1][0] a77ab a77bc a77cd a53cd a53[0] a78[1][1] a189[0] a189[1][0]+20000 a189[1][1] a188 a87[0] a20001+87[1][0] a87[1][1] am90 am91 a88 a187 a190 a77[0]"/>
    </vehicle>

    <vehicle id="37" depart="1162.00" arrival="1384.00">
        <route edges="a203[0] a203[1] a203[1]b a202 a34 a134 a134b a133 a31 a201 a201c a204a[0] a204b[0] a204[1][0] a125"/>
    </vehicle>

    <vehicle id="38" depart="1231.00" arrival="1396.00">
        <route edges="a190 a77[0] a53[1][0] a79 a68 a11 b2[0] b2[1][0] b2[1][1][0] b2[1][1][1] b2[1][1][1]b"/>
    </vehicle>

    <vehicle id="39" depart="1247.00" arrival="1409.00">
        <route edges="a190 a77[0] a53[1][0] a79 a68 a11 b2[0] b2[1][0] b2[1][1][0] b2[1][1][1] b2[1][1][1]b"/>
    </vehicle>

    <vehicle id="35" depart="1130.00" arrival="1524.00">
        <route edges="a55 a55b a125 b12 b50[0] b50[1] b50[1]a a181 a18 a17 a71 a67 a80 a127 a77[1][0] a77ab a77bc a77cd a53cd a53[0] a78[1][1] a189[0] a189[1][0]+20000 a189[1][1] a188 a87[0] a20001+87[1][0] a87[1][1] am90 am91 a88 a187 a190 a77[0]"/>
    </vehicle>

    <vehicle id="40" depart="1314.00" arrival="1594.00">
        <route edges="a16 a37 a36 a40 a153 a87[0] a20001+87[1][0] a87[1][1] am90 am91 a88 a187 a191 a17 a71 b2[0] b2[1][0] b2[1][1][0] b2[1][1][1] b2[1][1][1]b"/>
    </vehicle>

    <vehicle id="44" depart="1408.00" arrival="1622.00">
        <route edges="a203[0] a203[1] a203[1]b a202 a34 a134 a134b a133 a31 a201 a201c a204a[0] a204b[0] a204[1][0] a125"/>
    </vehicle>

    <vehicle id="42" depart="1378.00" arrival="1641.00">
        <route edges="a55 a55b a125 b12 b50[0] b50[1] b50[1]a a181 a18 a17 a71 a67 a80 a127 a77[1][0] a77ab a77bc a77cd a53cd a53[0] a78[1][1] a189[0] a189[1][0]+20000 a189[1][1] a188 a87[0] a20001+87[1][0] a87[1][1] am90 am91 a88 a187 a190 a77[0]"/>
    </vehicle>

    <vehicle id="41" depart="1372.00" arrival="1660.00">
        <route edges="a55 a55b a125 b12 b50[0] b50[1] b50[1]a a181 a18 a17 a71 a67 a80 a127 a77[1][0] a77ab a77bc a77cd a53cd a53[0] a78[1][1] a189[0] a189[1][0]+20000 a189[1][1] a188 a87[0] a20001+87[1][0] a87[1][1] am90 am91 a88 a187 a190 a77[0]"/>
    </vehicle>

    <vehicle id="43" depart="1392.00" arrival="1704.00">
        <route edges="a43[1] a201 a201c a204a[0] a124 b12 b56[0] b56[1][0] b56[1][1] b5[1][0]+66 b5[1][1][1] b8 b3[1] b3[1]b"/>
    </vehicle>

    <vehicle id="46" depart="1522.00" arrival="1729.00">
        <route edges="a203[0] b12 b50[0] b50[1] b50[1]a a181 a18 a17 a71 b2[0] b2[1][0] b2[1][1][0] b2[1][1][1] b2[1][1][1]b"/>
    </vehicle>

    <vehicle id="47" depart="1550.00" arrival="1735.00">
        <route edges="a203[0] a203[1] a203[1]b a202 a34 a134 a134b a133 a31 a201 a201c a204a[0] a204b[0] a204[1][0] a125"/>
    </vehicle>

    <vehicle id="45" depart="1430.00" arrival="1809.00">
        <route edges="a55 a55b a125 b12 b50[0] b50[1] b50[1]a a181 a18 a17 a71 a67 a80 a127 a77[1][0] a77ab a77bc a77cd a53cd a53[0] a78[1][1] a189[0] a189[1][0]+20000 a189[1][1] a188 a87[0] a20001+87[1][0] a87[1][1] am90 am91 a88 a187 a190 a77[0]"/>
    </vehicle>

    <vehicle id="51" depart="1745.00" arrival="1898.00">
        <route edges="a203[0] a203[1] a203[1]b a202 a34 a134 a134b a133 a31 a201 a201c a204a[0] a204b[0] a204[1][0] a125"/>
    </vehicle>

    <vehicle id="50" depart="1726.00" arrival="1920.00">
        <route edges="a212 a10 a13 a104 a24 a22 a59 a53cd a53[0] a53[1][0] a79 a68 a11 b38[0] b38[0]a b38[1][0] b96 b49[1] b55 b53"/>
    </vehicle>

    <vehicle id="48" depart="1710.00" arrival="1985.00">
        <route edges="a210 a43[0] a43[1] a115 a110 a185 a92 a90 am91 a88 a187 a191 a17 a71 b2[0] b2[1][0] b2[1][1][0] b2[1][1][1] b2[1][1][1]b"/>
    </vehicle>

    <vehicle id="53" depart="1822.00" arrival="2029.00">
        <route edges="a189[0] a189[1][0]+20000 a189[1][1] a191 a17 a71 b38[0] b38[0]a b37 b26 b26.-170 b15 b13[1] b4[0] b4[1][1][0]"/>
    </vehicle>

    <vehicle id="55" depart="1836.00" arrival="2043.00">
        <route edges="a203[0] a203[1] a203[1]b a202 a34 a134 a134b a133 a31 a201 a201c a204a[0] a204b[0] a204[1][0] a125"/>
    </vehicle>

    <vehicle id="49" depart="1722.00" arrival="2046.00">
        <route edges="a43[1] a201 a201c a204a[0] a124 b12 b56[0] b56[1][0] b56[1][1] b5[1][0]+66 b5[1][1][1] b8 b3[1] b3[1]b"/>
    </vehicle>

    <vehicle id="52" depart="1805.00" arrival="2046.00">
        <route edges="a203[0] a203[1] a203[1]b a202 a34 a134 a134b a133 a31 a201 a201c a204a[0] a204b[0] a204[1][0] a125"/>
    </vehicle>

    <vehicle id="56" depart="1917.00" arrival="2107.00">
        <route edges="b34[1][1] b2[1][0] b24 b23 b17[0] b17[1] b11[0] b11[1][1] b70"/>
    </vehicle>

    <vehicle id="57" depart="1944.00" arrival="2129.00">
        <route edges="a210 a43[0] a43[1] a201 a201c a204a[0] a124 b12 b50[0] b50[1] b49[1] b55 b35[1][1][0]"/>
    </vehicle>

    <vehicle id="54" depart="1825.00" arrival="2142.00">
        <route edges="a55 a55b a125 b12 b50[0] b50[1] b50[1]a a181 a18 a17 a71 a67 a80 a127 a77[1][0] a77ab a77bc a77cd a53cd a53[0] a78[1][1] a189[0] a189[1][0]+20000 a189[1][1] a188 a87[0] a20001+87[1][0] a87[1][1] am90 am91 a88 a187 a190 a77[0]"/>
    </vehicle>

    <vehicle id="60" depart="2063.00" arrival="2211.00">
        <route edges="a203[0] a203[1] a203[1]b a202 a34 a134 a134b a133 a31 a201 a201c a204a[0] a204b[0] a204[1][0] a125"/>
    </vehicle>

    <vehicle id="62" depart="2071.00" arrival="2244.00">
        <route edges="a210 a43[0] a43[1] a201 a201c a204a[0] a124 b12 b50[0] b50[1] b49[1] b55 b35[1][1][0]"/>
    </vehicle>

    <vehicle id="58" depart="2032.00" arrival="2364.00">
        <route edges="a43[1] a201 a201c a204a[0] a124 b12 b56[0] b56[1][0] b56[1][1] b5[1][0]+66 b5[1][1][1] b8 b3[1] b3[1]b"/>
    </vehicle>

    <vehicle id="66" depart="2191.00" arrival="2413.00">
        <route edges="a190 a77[0] a53[1][0] a79 a68 a11 b2[0] b2[1][0] b2[1][1][0] b2[1][1][1] b2[1][1][1]b"/>
    </vehicle>

    <vehicle id="68" depart="2231.00" arrival="2430.00">
        <route edges="a210 a43[0] a43[1] a201 a201c a204a[0] a124 b12 b50[0] b50[1] b49[1] b55 b35[1][1][0]"/>
    </vehicle>

    <vehicle id="59" depart="2040.00" arrival="2431.00">
        <route edges="a55 a55b a125 b12 b50[0] b50[1] b50[1]a a181 a18 a17 a71 a67 a80 a127 a77[1][0] a77ab a77bc a77cd a53cd a53[0] a78[1][1] a189[0] a189[1][0]+20000 a189[1][1] a188 a87[0] a20001+87[1][0] a87[1][1] am90 am91 a88 a187 a190 a77[0]"/>
    </vehicle>

    <vehicle id="61" depart="2069.00" arrival="2433.00">
        <route edges="a55 a55b a125 b12 b50[0] b50[1] b50[1]a a181 a18 a17 a71 a67 a80 a127 a77[1][0] a77ab a77bc a77cd a53cd a53[0] a78[1][1] a189[0] a189[1][0]+20000 a189[1][1] a188 a87[0] a20001+87[1][0] a87[1][1] am90 am91 a88 a187 a190 a77[0]"/>
    </vehicle>

    <vehicle id="64" depart="2170.00" arrival="2442.00">
        <route edges="a203[0] a203[1] a203[1]b a202 a34 a134 a134b a133 a31 a201 a201c a204a[0] a204b[0] a204[1][0] a125"/>
    </vehicle>

    <vehicle id="70" depart="2280.00" arrival="2450.00">
        <route edges="a203[0] a203[1] a203[1]b a202 a34 a134 a134b a133 a31 a201 a201c a204a[0] a204b[0] a204[1][0] a125"/>
    </vehicle>

    <vehicle id="63" depart="2140.00" arrival="2458.00">
        <route edges="a203[0] b12 b50[0] b50[1] b50[1]a a181 a18 a17 a71 b2[0] b2[1][0] b2[1][1][0] b2[1][1][1] b2[1][1][1]b"/>
    </vehicle>

    <vehicle id="67" depart="2225.00" arrival="2550.00">
        <route edges="a43[1] a201 a201c a204a[0] a124 b12 b56[0] b56[1][0] b56[1][1] b5[1][0]+66 b5[1][1][1] b8 b3[1] b3[1]b"/>
    </vehicle>

    <vehicle id="65" depart="2183.00" arrival="2574.00">
        <route edges="a55 a55b a125 b12 b50[0] b50[1] b50[1]a a181 a18 a17 a71 a67 a80 a127 a77[1][0] a77ab a77bc a77cd a53cd a53[0] a78[1][1] a189[0] a189[1][0]+20000 a189[1][1] a188 a87[0] a20001+87[1][0] a87[1][1] am90 am91 a88 a187 a190 a77[0]"/>
    </vehicle>

    <vehicle id="69" depart="2261.00" arrival="2578.00">
        <route edges="a16 a37 a36 a40 a153 a87[0] a20001+87[1][0] a87[1][1] am90 am91 a88 a187 a191 a17 a71 b2[0] b2[1][0] b2[1][1][0] b2[1][1][1] b2[1][1][1]b"/>
    </vehicle>

    <vehicle id="73" depart="2428.00" arrival="2628.00">
        <route edges="a190 a77[0] a53[1][0] a79 a68 a11 b2[0] b2[1][0] b2[1][1][0] b2[1][1][1] b2[1][1][1]b"/>
    </vehicle>

    <vehicle id="74" depart="2490.00" arrival="2635.00">
        <route edges="a190 a77[0] a53[1][0] a79 a68 a11 b2[0] b2[1][0] b2[1][1][0] b2[1][1][1] b2[1][1][1]b"/>
    </vehicle>

    <vehicle id="72" depart="2418.00" arrival="2675.00">
        <route edges="a43[1] a201 a201c a204a[0] a124 b12 b56[0] b56[1][0] b56[1][1] b5[1][0]+66 b5[1][1][1] b8 b3[1] b3[1]b"/>
    </vehicle>

    <vehicle id="71" depart="2399.00" arrival="2715.00">
        <route edges="a203[0] b12 b50[0] b50[1] b50[1]a a181 a18 a17 a71 b2[0] b2[1][0] b2[1][1][0] b2[1][1][1] b2[1][1][1]b"/>
    </vehicle>

    <vehicle id="76" depart="2654.00" arrival="2889.00">
        <route edges="a43[1] a201 a201c a204a[0] a124 b12 b56[0] b56[1][0] b56[1][1] b5[1][0]+66 b5[1][1][1] b8 b3[1] b3[1]b"/>
    </vehicle>

    <vehicle id="75" depart="2598.00" arrival="2895.00">
        <route edges="a203[0] a203[1] a203[1]b a202 a34 a134 a134b a133 a31 a201 a201c a204a[0] a204b[0] a204[1][0] a125"/>
    </vehicle>

    <vehicle id="77" depart="2716.00" arrival="2919.00">
        <route edges="a203[0] a203[1] a203[1]b a202 a34 a134 a134b a133 a31 a201 a201c a204a[0] a204b[0] a204[1][0] a125"/>
    </vehicle>

    <vehicle id="78" depart="2767.00" arrival="2970.00">
        <route edges="a20001+87[1][0] a87[1][1] am90 am91 a88 a187 a191 a17 a71 b38[0] b38[0]a b37 b26 b26.-170 b18 b20+19a ba1[1]"/>
    </vehicle>

    <vehicle id="79" depart="2797.00" arrival="3015.00">
        <route edges="a203[0] a203[1] a203[1]b a202 a34 a134 a134b a133 a31 a201 a201c a204a[0] a204b[0] a204[1][0] a125"/>
    </vehicle>

    <vehicle id="81" depart="2831.00" arrival="3076.00">
        <route edges="a203[0] a203[1] a203[1]b a202 a34 a134 a134b a133 a31 a201 a201c a204a[0] a204b[0] a204[1][0] a125"/>
    </vehicle>

    <vehicle id="80" depart="2818.00" arrival="3078.00">
        <route edges="a203[0] a203[1] a203[1]b a202 a34 a134 a134b a133 a31 a201 a201c a204a[0] a204b[0] a204[1][0] a125"/>
    </vehicle>

    <vehicle id="82" depart="2837.00" arrival="3085.00">
        <route edges="a43[1] a201 a201c a204a[0] a124 b12 b56[0] b56[1][0] b56[1][1] b5[1][0]+66 b5[1][1][1] b8 b3[1] b3[1]b"/>
    </vehicle>

    <vehicle id="86" depart="2974.00" arrival="3202.00">
        <route edges="a203[0] a203[1] a203[1]b a202 a34 a134 a134b a133 a31 a201 a201c a204a[0] a204b[0] a204[1][0] a125"/>
    </vehicle>

    <vehicle id="84" depart="2959.00" arrival="3204.00">
        <route edges="a203[0] a203[1] a203[1]b a202 a34 a134 a134b a133 a31 a201 a201c a204a[0] a204b[0] a204[1][0] a125"/>
    </vehicle>

    <vehicle id="83" depart="2948.00" arrival="3206.00">
        <route edges="a203[0] a203[1] a203[1]b a202 a34 a134 a134b a133 a31 a201 a201c a204a[0] a204b[0] a204[1][0] a125"/>
    </vehicle>

    <vehicle id="85" depart="2971.00" arrival="3209.00">
        <route edges="a203[0] a203[1] a203[1]b a202 a34 a134 a134b a133 a31 a201 a201c a204a[0] a204b[0] a204[1][0] a125"/>
    </vehicle>

    <vehicle id="87" depart="2986.00" arrival="3232.00">
        <route edges="a212 a10 a13 a104 a24 a22 a59 a53cd a53[0] a53[1][0] a79 a68 a11 b38[0] b38[0]a b38[1][0] b96 b49[1] b55 b53"/>
    </vehicle>

    <vehicle id="88" depart="3066.00" arrival="3321.00">
        <route edges="a203[0] b12 b50[0] b50[1] b50[1]a a181 a18 a17 a71 b2[0] b2[1][0] b2[1][1][0] b2[1][1][1] b2[1][1][1]b"/>
    </vehicle>

    <vehicle id="91" depart="3154.00" arrival="3332.00">
        <route edges="b34[1][1] b2[1][0] b24 b23 b17[0] b17[1] b11[0] b11[1][1] b70"/>
    </vehicle>

    <vehicle id="90" depart="3145.00" arrival="3429.00">
        <route edges="a203[0] a203[1] a203[1]b a202 a34 a134 a134b a133 a31 a201 a201c a204a[0] a204b[0] a204[1][0] a125"/>
    </vehicle>

    <vehicle id="89" depart="3113.00" arrival="3492.00">
        <route edges="a55 a55b a125 b12 b50[0] b50[1] b50[1]a a181 a18 a17 a71 a67 a80 a127 a77[1][0] a77ab a77bc a77cd a53cd a53[0] a78[1][1] a189[0] a189[1][0]+20000 a189[1][1] a188 a87[0] a20001+87[1][0] a87[1][1] am90 am91 a88 a187 a190 a77[0]"/>
    </vehicle>

    <vehicle id="95" depart="3393.00" arrival="3575.00">
        <route edges="a203[0] a203[1] a203[1]b a202 a34 a134 a134b a133 a31 a201 a201c a204a[0] a204b[0] a204[1][0] a125"/>
    </vehicle>

    <vehicle id="96" depart="3431.00" arrival="3590.00">
        <route edges="a210 a43[0] a43[1] a201 a201c a204a[0] a124 b12 b50[0] b50[1] b49[1] b55 b35[1][1][0]"/>
    </vehicle>

    <vehicle id="92" depart="3234.00" arrival="3605.00">
        <route edges="a201 a201c a204a[0] a124 b12 b50[0] b50[1] b50[1]a a181 a18 a17 a71 b2[0] b2[1][0] b2[1][1][0] b2[1][1][1] b2[1][1][1]b"/>
    </vehicle>

    <vehicle id="93" depart="3358.00" arrival="3629.00">
        <route edges="a55 a55b a125 b12 b50[0] b50[1] b50[1]a a181 a18 a17 a71 a67 a80 a127 a77[1][0] a77ab a77bc a77cd a53cd a53[0] a78[1][1] a189[0] a189[1][0]+20000 a189[1][1] a188 a87[0] a20001+87[1][0] a87[1][1] am90 am91 a88 a187 a190 a77[0]"/>
    </vehicle>

    <vehicle id="94" depart="3372.00" arrival="3692.00">
        <route edges="a43[1] a201 a201c a204a[0] a124 b12 b56[0] b56[1][0] b56[1][1] b5[1][0]+66 b5[1][1][1] b8 b3[1] b3[1]b"/>
    </vehicle>

    <vehicle id="97" depart="3447.00" arrival="3728.00">
        <route edges="a201 a201c a204a[0] a124 b12 b50[0] b50[1] b50[1]a a181 a18 a17 a71 b2[0] b2[1][0] b2[1][1][0] b2[1][1][1] b2[1][1][1]b"/>
    </vehicle>

    <vehicle id="99" depart="3533.00" arrival="3739.00">
        <route edges="a203[0] a203[1] a203[1]b a202 a34 a134 a134b a133 a31 a201 a201c a204a[0] a204b[0] a204[1][0] a125"/>
    </vehicle>

    <vehicle id="98" depart="3507.00" arrival="3741.00">
        <route edges="a203[0] a203[1] a203[1]b a202 a34 a134 a134b a133 a31 a201 a201c a204a[0] a204b[0] a204[1][0] a125"/>
    </vehicle>

</routes>
