<?xml version="1.0" encoding="UTF-8"?>

<!-- generated on 2025-03-21 17:47:57 by Eclipse SUMO sumo Version 1.21.0
<sumoConfiguration xmlns:xsi="http://www.w3.org/2001/XMLSchema-instance" xsi:noNamespaceSchemaLocation="http://sumo.dlr.de/xsd/sumoConfiguration.xsd">

    <input>
        <net-file value="${STATICPATH}/joined_lanes.net.xml"/>
        <route-files value="${SIMULATIONPATH}/generatedRoutes.rou.xml"/>
        <additional-files value="${STATICPATH}/detectors.add.xml,${STATICPATH}/joined_vtypes.add.xml,${STATICPATH}/joined_tls.add.xml"/>
    </input>

    <output>
        <fcd-output value="${SIMULATIONPATH}/fcd.xml"/>
        <queue-output value="${SIMULATIONPATH}/queue.xml"/>
        <summary-output value="${SIMULATIONPATH}/summary.xml"/>
        <tripinfo-output value="${SIMULATIONPATH}/tripinfos.xml"/>
        <vehroute-output value="${SIMULATIONPATH}/vehroute.xml"/>
        <save-state.prefix value="configs\state"/>
    </output>

    <processing>
        <ignore-junction-blocker value="1"/>
        <ignore-route-errors value="true"/>
        <time-to-teleport value="-1"/>
    </processing>

    <report>
        <log value="C:/Users/fabio/Desktop/sumo_log.txt"/>
        <no-step-log value="true"/>
    </report>

    <emissions>
        <phemlight-path value="configs\./PHEMlight/"/>
    </emissions>

    <traci_server>
        <remote-port value="60200"/>
    </traci_server>

</sumoConfiguration>
-->

<tripinfos xmlns:xsi="http://www.w3.org/2001/XMLSchema-instance" xsi:noNamespaceSchemaLocation="http://sumo.dlr.de/xsd/tripinfo_file.xsd">
    <tripinfo id="0" depart="40.00" departLane="a153_0" departPos="5.10" departSpeed="0.00" departDelay="0.29" arrival="331.00" arrivalLane="b4[1][1][1]_0" arrivalPos="171.54" arrivalSpeed="13.95" duration="291.00" routeLength="2686.56" waitingTime="53.00" waitingCount="6" stopTime="0.00" timeLoss="104.33" rerouteNo="0" devices="vehroute_0 tripinfo_0 fcd_0" vType="DEFAULT_VEHTYPE" speedFactor="1.06" vaporized=""/>
    <tripinfo id="3" depart="131.00" departLane="a153_0" departPos="5.10" departSpeed="0.00" departDelay="0.82" arrival="469.00" arrivalLane="b4[1][1][1]_0" arrivalPos="171.54" arrivalSpeed="14.38" duration="338.00" routeLength="2686.56" waitingTime="81.00" waitingCount="6" stopTime="0.00" timeLoss="154.77" rerouteNo="0" devices="vehroute_3 tripinfo_3 fcd_3" vType="DEFAULT_VEHTYPE" speedFactor="1.08" vaporized=""/>
    <tripinfo id="2" depart="93.00" departLane="a153_0" departPos="5.10" departSpeed="0.00" departDelay="0.08" arrival="472.00" arrivalLane="b4[1][1][1]_0" arrivalPos="171.54" arrivalSpeed="13.72" duration="379.00" routeLength="2686.56" waitingTime="123.00" waitingCount="5" stopTime="0.00" timeLoss="182.98" rerouteNo="0" devices="vehroute_2 tripinfo_2 fcd_2" vType="DEFAULT_VEHTYPE" speedFactor="1.01" vaporized=""/>
    <tripinfo id="1" depart="70.00" departLane="a161_0" departPos="5.10" departSpeed="0.00" departDelay="0.91" arrival="493.00" arrivalLane="b2[1][1][1]b_0" arrivalPos="325.74" arrivalSpeed="12.07" duration="423.00" routeLength="2868.74" waitingTime="164.00" waitingCount="3" stopTime="0.00" timeLoss="200.46" rerouteNo="0" devices="vehroute_1 tripinfo_1 fcd_1" vType="DEFAULT_VEHTYPE" speedFactor="0.94" vaporized=""/>
    <tripinfo id="10" depart="316.00" departLane="a161_0" departPos="5.10" departSpeed="0.00" departDelay="0.49" arrival="615.00" arrivalLane="b2[1][1][1]b_0" arrivalPos="325.74" arrivalSpeed="14.92" duration="299.00" routeLength="2868.74" waitingTime="66.00" waitingCount="3" stopTime="0.00" timeLoss="106.64" rerouteNo="0" devices="vehroute_10 tripinfo_10 fcd_10" vType="DEFAULT_VEHTYPE" speedFactor="1.09" vaporized=""/>
    <tripinfo id="4" depart="209.00" departLane="a161_0" departPos="5.10" departSpeed="0.00" departDelay="0.99" arrival="616.00" arrivalLane="b2[1][1][1]b_0" arrivalPos="325.74" arrivalSpeed="13.58" duration="407.00" routeLength="2873.23" waitingTime="157.00" waitingCount="4" stopTime="0.00" timeLoss="203.79" rerouteNo="0" devices="vehroute_4 tripinfo_4 fcd_4" vType="DEFAULT_VEHTYPE" speedFactor="1.03" vaporized=""/>
    <tripinfo id="8" depart="246.00" departLane="a161_0" departPos="5.10" departSpeed="0.00" departDelay="0.58" arrival="621.00" arrivalLane="b2[1][1][1]b_0" arrivalPos="325.74" arrivalSpeed="12.39" duration="375.00" routeLength="2865.78" waitingTime="105.00" waitingCount="2" stopTime="0.00" timeLoss="151.44" rerouteNo="0" devices="vehroute_8 tripinfo_8 fcd_8" vType="DEFAULT_VEHTYPE" speedFactor="0.94" vaporized=""/>
    <tripinfo id="7" depart="225.00" departLane="a161_0" departPos="5.10" departSpeed="0.00" departDelay="0.75" arrival="623.00" arrivalLane="b2[1][1][1]b_1" arrivalPos="325.74" arrivalSpeed="11.54" duration="398.00" routeLength="2865.78" waitingTime="125.00" waitingCount="3" stopTime="0.00" timeLoss="161.62" rerouteNo="0" devices="vehroute_7 tripinfo_7 fcd_7" vType="DEFAULT_VEHTYPE" speedFactor="0.89" vaporized=""/>
    <tripinfo id="9" depart="292.00" departLane="a161_0" departPos="5.10" departSpeed="0.00" departDelay="0.69" arrival="628.00" arrivalLane="b2[1][1][1]b_0" arrivalPos="325.74" arrivalSpeed="10.88" duration="336.00" routeLength="2873.23" waitingTime="56.00" waitingCount="3" stopTime="0.00" timeLoss="91.42" rerouteNo="0" devices="vehroute_9 tripinfo_9 fcd_9" vType="DEFAULT_VEHTYPE" speedFactor="0.86" vaporized=""/>
    <tripinfo id="6" depart="221.00" departLane="a153_0" departPos="5.10" departSpeed="0.00" departDelay="0.14" arrival="632.00" arrivalLane="b4[1][1][1]_0" arrivalPos="171.54" arrivalSpeed="14.44" duration="411.00" routeLength="2686.56" waitingTime="130.00" waitingCount="7" stopTime="0.00" timeLoss="221.95" rerouteNo="0" devices="vehroute_6 tripinfo_6 fcd_6" vType="DEFAULT_VEHTYPE" speedFactor="1.05" vaporized=""/>
    <tripinfo id="5" depart="210.00" departLane="a153_0" departPos="5.10" departSpeed="0.00" departDelay="0.61" arrival="638.00" arrivalLane="b4[1][1][1]_0" arrivalPos="171.54" arrivalSpeed="10.87" duration="428.00" routeLength="2686.56" waitingTime="133.00" waitingCount="8" stopTime="0.00" timeLoss="189.31" rerouteNo="0" devices="vehroute_5 tripinfo_5 fcd_5" vType="DEFAULT_VEHTYPE" speedFactor="0.83" vaporized=""/>
    <tripinfo id="11" depart="364.00" departLane="a153_0" departPos="5.10" departSpeed="0.00" departDelay="0.24" arrival="682.00" arrivalLane="b4[1][1][1]_0" arrivalPos="171.54" arrivalSpeed="13.68" duration="318.00" routeLength="2686.56" waitingTime="69.00" waitingCount="5" stopTime="0.00" timeLoss="125.24" rerouteNo="0" devices="vehroute_11 tripinfo_11 fcd_11" vType="DEFAULT_VEHTYPE" speedFactor="1.03" vaporized=""/>
    <tripinfo id="12" depart="381.00" departLane="a153_0" departPos="5.10" departSpeed="0.00" departDelay="0.61" arrival="684.00" arrivalLane="b4[1][1][1]_0" arrivalPos="171.54" arrivalSpeed="14.18" duration="303.00" routeLength="2686.56" waitingTime="55.00" waitingCount="3" stopTime="0.00" timeLoss="112.48" rerouteNo="0" devices="vehroute_12 tripinfo_12 fcd_12" vType="DEFAULT_VEHTYPE" speedFactor="1.05" vaporized=""/>
    <tripinfo id="13" depart="419.00" departLane="a161_0" departPos="5.10" departSpeed="0.00" departDelay="0.08" arrival="740.00" arrivalLane="b2[1][1][1]b_0" arrivalPos="325.74" arrivalSpeed="14.99" duration="321.00" routeLength="2873.23" waitingTime="86.00" waitingCount="5" stopTime="0.00" timeLoss="134.65" rerouteNo="0" devices="vehroute_13 tripinfo_13 fcd_13" vType="DEFAULT_VEHTYPE" speedFactor="1.12" vaporized=""/>
    <tripinfo id="14" depart="437.00" departLane="a153_0" departPos="5.10" departSpeed="0.00" departDelay="0.01" arrival="822.00" arrivalLane="b4[1][1][1]_0" arrivalPos="171.54" arrivalSpeed="13.76" duration="385.00" routeLength="2686.56" waitingTime="138.00" waitingCount="6" stopTime="0.00" timeLoss="186.12" rerouteNo="0" devices="vehroute_14 tripinfo_14 fcd_14" vType="DEFAULT_VEHTYPE" speedFactor="0.99" vaporized=""/>
    <tripinfo id="15" depart="471.00" departLane="a153_0" departPos="5.10" departSpeed="0.00" departDelay="0.44" arrival="826.00" arrivalLane="b4[1][1][1]_0" arrivalPos="171.54" arrivalSpeed="12.67" duration="355.00" routeLength="2686.56" waitingTime="96.00" waitingCount="4" stopTime="0.00" timeLoss="141.52" rerouteNo="0" devices="vehroute_15 tripinfo_15 fcd_15" vType="DEFAULT_VEHTYPE" speedFactor="0.93" vaporized=""/>
    <tripinfo id="19" depart="513.00" departLane="a161_0" departPos="5.10" departSpeed="0.00" departDelay="0.90" arrival="865.00" arrivalLane="b2[1][1][1]b_0" arrivalPos="325.74" arrivalSpeed="15.44" duration="352.00" routeLength="2865.78" waitingTime="121.00" waitingCount="5" stopTime="0.00" timeLoss="171.02" rerouteNo="0" devices="vehroute_19 tripinfo_19 fcd_19" vType="DEFAULT_VEHTYPE" speedFactor="1.16" vaporized=""/>
    <tripinfo id="21" depart="548.00" departLane="a161_0" departPos="5.10" departSpeed="0.00" departDelay="0.71" arrival="868.00" arrivalLane="b2[1][1][1]b_0" arrivalPos="325.74" arrivalSpeed="13.92" duration="320.00" routeLength="2865.78" waitingTime="67.00" waitingCount="3" stopTime="0.00" timeLoss="112.90" rerouteNo="0" devices="vehroute_21 tripinfo_21 fcd_21" vType="DEFAULT_VEHTYPE" speedFactor="1.01" vaporized=""/>
    <tripinfo id="18" depart="494.00" departLane="a161_0" departPos="5.10" departSpeed="0.00" departDelay="0.41" arrival="872.00" arrivalLane="b2[1][1][1]b_0" arrivalPos="325.74" arrivalSpeed="11.85" duration="378.00" routeLength="2870.27" waitingTime="106.00" waitingCount="4" stopTime="0.00" timeLoss="154.66" rerouteNo="0" devices="vehroute_18 tripinfo_18 fcd_18" vType="DEFAULT_VEHTYPE" speedFactor="0.94" vaporized=""/>
    <tripinfo id="17" depart="487.00" departLane="a153_0" departPos="5.10" departSpeed="0.00" departDelay="0.40" arrival="882.00" arrivalLane="b4[1][1][1]_0" arrivalPos="171.54" arrivalSpeed="12.15" duration="395.00" routeLength="2686.56" waitingTime="129.00" waitingCount="4" stopTime="0.00" timeLoss="183.96" rerouteNo="0" devices="vehroute_17 tripinfo_17 fcd_17" vType="DEFAULT_VEHTYPE" speedFactor="0.94" vaporized=""/>
    <tripinfo id="20" depart="527.00" departLane="a153_0" departPos="5.10" departSpeed="0.00" departDelay="0.05" arrival="884.00" arrivalLane="b4[1][1][1]_0" arrivalPos="171.54" arrivalSpeed="13.63" duration="357.00" routeLength="2686.56" waitingTime="92.00" waitingCount="5" stopTime="0.00" timeLoss="161.89" rerouteNo="0" devices="vehroute_20 tripinfo_20 fcd_20" vType="DEFAULT_VEHTYPE" speedFactor="1.02" vaporized=""/>
    <tripinfo id="16" depart="478.00" departLane="a153_0" departPos="5.10" departSpeed="0.00" departDelay="0.91" arrival="888.00" arrivalLane="b4[1][1][1]_0" arrivalPos="171.54" arrivalSpeed="11.52" duration="410.00" routeLength="2686.56" waitingTime="133.00" waitingCount="4" stopTime="0.00" timeLoss="184.80" rerouteNo="0" devices="vehroute_16 tripinfo_16 fcd_16" vType="DEFAULT_VEHTYPE" speedFactor="0.88" vaporized=""/>
    <tripinfo id="23" depart="630.00" departLane="a153_0" departPos="5.10" departSpeed="0.00" departDelay="0.58" arrival="976.00" arrivalLane="b4[1][1][1]_0" arrivalPos="171.54" arrivalSpeed="12.00" duration="346.00" routeLength="2686.56" waitingTime="74.00" waitingCount="4" stopTime="0.00" timeLoss="124.39" rerouteNo="0" devices="vehroute_23 tripinfo_23 fcd_23" vType="DEFAULT_VEHTYPE" speedFactor="0.89" vaporized=""/>
    <tripinfo id="22" depart="625.00" departLane="a161_0" departPos="5.10" departSpeed="0.00" departDelay="0.31" arrival="995.00" arrivalLane="b2[1][1][1]b_0" arrivalPos="325.74" arrivalSpeed="13.33" duration="370.00" routeLength="2873.23" waitingTime="114.00" waitingCount="5" stopTime="0.00" timeLoss="155.36" rerouteNo="0" devices="vehroute_22 tripinfo_22 fcd_22" vType="DEFAULT_VEHTYPE" speedFactor="0.97" vaporized=""/>
    <tripinfo id="24" depart="701.00" departLane="a153_0" departPos="5.10" departSpeed="0.00" departDelay="0.36" arrival="1107.00" arrivalLane="b4[1][1][1]_0" arrivalPos="171.54" arrivalSpeed="10.78" duration="406.00" routeLength="2686.56" waitingTime="113.00" waitingCount="6" stopTime="0.00" timeLoss="166.19" rerouteNo="0" devices="vehroute_24 tripinfo_24 fcd_24" vType="DEFAULT_VEHTYPE" speedFactor="0.83" vaporized=""/>
    <tripinfo id="25" depart="751.00" departLane="a153_0" departPos="5.10" departSpeed="0.00" departDelay="0.36" arrival="1109.00" arrivalLane="b4[1][1][1]_0" arrivalPos="171.54" arrivalSpeed="11.57" duration="358.00" routeLength="2686.56" waitingTime="65.00" waitingCount="4" stopTime="0.00" timeLoss="131.02" rerouteNo="0" devices="vehroute_25 tripinfo_25 fcd_25" vType="DEFAULT_VEHTYPE" speedFactor="0.87" vaporized=""/>
    <tripinfo id="27" depart="862.00" departLane="a161_0" departPos="5.10" departSpeed="0.00" departDelay="0.95" arrival="1231.00" arrivalLane="b2[1][1][1]b_0" arrivalPos="325.74" arrivalSpeed="12.86" duration="369.00" routeLength="2868.74" waitingTime="113.00" waitingCount="3" stopTime="0.00" timeLoss="148.42" rerouteNo="0" devices="vehroute_27 tripinfo_27 fcd_27" vType="DEFAULT_VEHTYPE" speedFactor="0.95" vaporized=""/>
    <tripinfo id="26" depart="778.00" departLane="a153_0" departPos="5.10" departSpeed="0.00" departDelay="0.26" arrival="1232.00" arrivalLane="b4[1][1][1]_0" arrivalPos="171.54" arrivalSpeed="11.79" duration="454.00" routeLength="2686.56" waitingTime="187.00" waitingCount="5" stopTime="0.00" timeLoss="237.95" rerouteNo="0" devices="vehroute_26 tripinfo_26 fcd_26" vType="DEFAULT_VEHTYPE" speedFactor="0.92" vaporized=""/>
    <tripinfo id="28" depart="936.00" departLane="a161_0" departPos="5.10" departSpeed="0.00" departDelay="0.67" arrival="1268.00" arrivalLane="b2[1][1][1]b_0" arrivalPos="325.74" arrivalSpeed="15.17" duration="332.00" routeLength="2873.23" waitingTime="102.00" waitingCount="4" stopTime="0.00" timeLoss="147.16" rerouteNo="0" devices="vehroute_28 tripinfo_28 fcd_28" vType="DEFAULT_VEHTYPE" speedFactor="1.13" vaporized=""/>
    <tripinfo id="29" depart="948.00" departLane="a153_0" departPos="5.10" departSpeed="0.00" departDelay="0.79" arrival="1358.00" arrivalLane="b4[1][1][1]_0" arrivalPos="171.54" arrivalSpeed="12.27" duration="410.00" routeLength="2686.56" waitingTime="137.00" waitingCount="7" stopTime="0.00" timeLoss="198.05" rerouteNo="0" devices="vehroute_29 tripinfo_29 fcd_29" vType="DEFAULT_VEHTYPE" speedFactor="0.93" vaporized=""/>
    <tripinfo id="32" depart="1097.00" departLane="a161_0" departPos="5.10" departSpeed="0.00" departDelay="0.16" arrival="1473.00" arrivalLane="b2[1][1][1]b_0" arrivalPos="325.74" arrivalSpeed="12.83" duration="376.00" routeLength="2870.27" waitingTime="129.00" waitingCount="4" stopTime="0.00" timeLoss="167.98" rerouteNo="0" devices="vehroute_32 tripinfo_32 fcd_32" vType="DEFAULT_VEHTYPE" speedFactor="1.01" vaporized=""/>
    <tripinfo id="30" depart="1092.00" departLane="a153_0" departPos="5.10" departSpeed="0.00" departDelay="0.74" arrival="1481.00" arrivalLane="b4[1][1][1]_0" arrivalPos="171.54" arrivalSpeed="16.29" duration="389.00" routeLength="2686.56" waitingTime="158.00" waitingCount="8" stopTime="0.00" timeLoss="221.64" rerouteNo="0" devices="vehroute_30 tripinfo_30 fcd_30" vType="DEFAULT_VEHTYPE" speedFactor="1.18" vaporized=""/>
    <tripinfo id="31" depart="1095.00" departLane="a153_0" departPos="5.10" departSpeed="0.00" departDelay="3.21" arrival="1483.00" arrivalLane="b4[1][1][1]_0" arrivalPos="171.54" arrivalSpeed="15.79" duration="388.00" routeLength="2686.56" waitingTime="135.00" waitingCount="7" stopTime="0.00" timeLoss="216.29" rerouteNo="0" devices="vehroute_31 tripinfo_31 fcd_31" vType="DEFAULT_VEHTYPE" speedFactor="1.15" vaporized=""/>
    <tripinfo id="33" depart="1100.00" departLane="a153_0" departPos="5.10" departSpeed="0.00" departDelay="0.11" arrival="1485.00" arrivalLane="b4[1][1][1]_0" arrivalPos="171.54" arrivalSpeed="15.09" duration="385.00" routeLength="2686.56" waitingTime="128.00" waitingCount="7" stopTime="0.00" timeLoss="216.78" rerouteNo="0" devices="vehroute_33 tripinfo_33 fcd_33" vType="DEFAULT_VEHTYPE" speedFactor="1.17" vaporized=""/>
    <tripinfo id="34" depart="1103.00" departLane="a153_0" departPos="5.10" departSpeed="0.00" departDelay="0.49" arrival="1490.00" arrivalLane="b4[1][1][1]_0" arrivalPos="171.54" arrivalSpeed="13.31" duration="387.00" routeLength="2686.56" waitingTime="116.00" waitingCount="6" stopTime="0.00" timeLoss="187.21" rerouteNo="0" devices="vehroute_34 tripinfo_34 fcd_34" vType="DEFAULT_VEHTYPE" speedFactor="0.99" vaporized=""/>
    <tripinfo id="35" depart="1123.00" departLane="a153_0" departPos="5.10" departSpeed="0.00" departDelay="0.46" arrival="1492.00" arrivalLane="b4[1][1][1]_0" arrivalPos="171.54" arrivalSpeed="13.26" duration="369.00" routeLength="2686.56" waitingTime="103.00" waitingCount="5" stopTime="0.00" timeLoss="173.27" rerouteNo="0" devices="vehroute_35 tripinfo_35 fcd_35" vType="DEFAULT_VEHTYPE" speedFactor="1.02" vaporized=""/>
    <tripinfo id="37" depart="1297.00" departLane="a161_0" departPos="5.10" departSpeed="0.00" departDelay="0.51" arrival="1585.00" arrivalLane="b2[1][1][1]b_0" arrivalPos="325.74" arrivalSpeed="16.04" duration="288.00" routeLength="2868.74" waitingTime="80.00" waitingCount="2" stopTime="0.00" timeLoss="110.75" rerouteNo="0" devices="vehroute_37 tripinfo_37 fcd_37" vType="DEFAULT_VEHTYPE" speedFactor="1.18" vaporized=""/>
    <tripinfo id="38" depart="1324.00" departLane="a161_0" departPos="5.10" departSpeed="0.00" departDelay="0.88" arrival="1590.00" arrivalLane="b2[1][1][1]b_0" arrivalPos="325.74" arrivalSpeed="14.92" duration="266.00" routeLength="2868.74" waitingTime="53.00" waitingCount="1" stopTime="0.00" timeLoss="76.35" rerouteNo="0" devices="vehroute_38 tripinfo_38 fcd_38" vType="DEFAULT_VEHTYPE" speedFactor="1.10" vaporized=""/>
    <tripinfo id="39" depart="1327.00" departLane="a161_0" departPos="5.10" departSpeed="0.00" departDelay="3.07" arrival="1606.00" arrivalLane="b2[1][1][1]b_0" arrivalPos="325.74" arrivalSpeed="11.94" duration="279.00" routeLength="2868.74" waitingTime="16.00" waitingCount="2" stopTime="0.00" timeLoss="46.92" rerouteNo="0" devices="vehroute_39 tripinfo_39 fcd_39" vType="DEFAULT_VEHTYPE" speedFactor="0.90" vaporized=""/>
    <tripinfo id="36" depart="1246.00" departLane="a153_0" departPos="5.10" departSpeed="0.00" departDelay="0.04" arrival="1613.00" arrivalLane="b4[1][1][1]_0" arrivalPos="171.54" arrivalSpeed="12.64" duration="367.00" routeLength="2686.56" waitingTime="106.00" waitingCount="7" stopTime="0.00" timeLoss="163.11" rerouteNo="0" devices="vehroute_36 tripinfo_36 fcd_36" vType="DEFAULT_VEHTYPE" speedFactor="0.97" vaporized=""/>
    <tripinfo id="40" depart="1371.00" departLane="a161_0" departPos="5.10" departSpeed="0.00" departDelay="0.76" arrival="1726.00" arrivalLane="b2[1][1][1]b_0" arrivalPos="325.74" arrivalSpeed="13.99" duration="355.00" routeLength="2870.27" waitingTime="108.00" waitingCount="5" stopTime="0.00" timeLoss="152.23" rerouteNo="0" devices="vehroute_40 tripinfo_40 fcd_40" vType="DEFAULT_VEHTYPE" speedFactor="1.03" vaporized=""/>
    <tripinfo id="41" depart="1430.00" departLane="a161_0" departPos="5.10" departSpeed="0.00" departDelay="0.87" arrival="1728.00" arrivalLane="b2[1][1][1]b_1" arrivalPos="325.74" arrivalSpeed="12.46" duration="298.00" routeLength="2868.74" waitingTime="50.00" waitingCount="1" stopTime="0.00" timeLoss="79.49" rerouteNo="0" devices="vehroute_41 tripinfo_41 fcd_41" vType="DEFAULT_VEHTYPE" speedFactor="0.96" vaporized=""/>
    <tripinfo id="42" depart="1436.00" departLane="a153_0" departPos="5.10" departSpeed="0.00" departDelay="0.81" arrival="1801.00" arrivalLane="b4[1][1][1]_0" arrivalPos="171.54" arrivalSpeed="13.91" duration="365.00" routeLength="2686.56" waitingTime="133.00" waitingCount="5" stopTime="0.00" timeLoss="184.08" rerouteNo="0" devices="vehroute_42 tripinfo_42 fcd_42" vType="DEFAULT_VEHTYPE" speedFactor="1.09" vaporized=""/>
    <tripinfo id="43" depart="1451.00" departLane="a153_0" departPos="5.10" departSpeed="0.00" departDelay="0.27" arrival="1803.00" arrivalLane="b4[1][1][1]_0" arrivalPos="171.54" arrivalSpeed="14.11" duration="352.00" routeLength="2686.56" waitingTime="102.00" waitingCount="7" stopTime="0.00" timeLoss="162.37" rerouteNo="0" devices="vehroute_43 tripinfo_43 fcd_43" vType="DEFAULT_VEHTYPE" speedFactor="1.04" vaporized=""/>
    <tripinfo id="45" depart="1499.00" departLane="a161_0" departPos="5.10" departSpeed="0.00" departDelay="0.85" arrival="1850.00" arrivalLane="b2[1][1][1]b_0" arrivalPos="325.74" arrivalSpeed="13.81" duration="351.00" routeLength="2870.27" waitingTime="112.00" waitingCount="5" stopTime="0.00" timeLoss="158.59" rerouteNo="0" devices="vehroute_45 tripinfo_45 fcd_45" vType="DEFAULT_VEHTYPE" speedFactor="1.09" vaporized=""/>
    <tripinfo id="44" depart="1491.00" departLane="a153_0" departPos="5.10" departSpeed="0.00" departDelay="0.13" arrival="1855.00" arrivalLane="b4[1][1][1]_0" arrivalPos="171.54" arrivalSpeed="14.23" duration="364.00" routeLength="2686.56" waitingTime="100.00" waitingCount="8" stopTime="0.00" timeLoss="173.40" rerouteNo="0" devices="vehroute_44 tripinfo_44 fcd_44" vType="DEFAULT_VEHTYPE" speedFactor="1.04" vaporized=""/>
    <tripinfo id="47" depart="1557.00" departLane="a161_0" departPos="5.10" departSpeed="0.00" departDelay="0.01" arrival="1855.00" arrivalLane="b2[1][1][1]b_0" arrivalPos="325.74" arrivalSpeed="11.42" duration="298.00" routeLength="2868.74" waitingTime="35.00" waitingCount="1" stopTime="0.00" timeLoss="65.99" rerouteNo="0" devices="vehroute_47 tripinfo_47 fcd_47" vType="DEFAULT_VEHTYPE" speedFactor="0.90" vaporized=""/>
    <tripinfo id="46" depart="1534.00" departLane="a153_0" departPos="5.10" departSpeed="0.00" departDelay="0.10" arrival="1858.00" arrivalLane="b4[1][1][1]_0" arrivalPos="171.54" arrivalSpeed="13.24" duration="324.00" routeLength="2686.56" waitingTime="61.00" waitingCount="4" stopTime="0.00" timeLoss="125.46" rerouteNo="0" devices="vehroute_46 tripinfo_46 fcd_46" vType="DEFAULT_VEHTYPE" speedFactor="1.00" vaporized=""/>
    <tripinfo id="48" depart="1583.00" departLane="a153_0" departPos="5.10" departSpeed="0.00" departDelay="0.76" arrival="1962.00" arrivalLane="b4[1][1][1]_0" arrivalPos="171.54" arrivalSpeed="11.13" duration="379.00" routeLength="2686.56" waitingTime="100.00" waitingCount="6" stopTime="0.00" timeLoss="154.30" rerouteNo="0" devices="vehroute_48 tripinfo_48 fcd_48" vType="DEFAULT_VEHTYPE" speedFactor="0.88" vaporized=""/>
    <tripinfo id="51" depart="1656.00" departLane="a161_0" departPos="5.10" departSpeed="0.00" departDelay="0.72" arrival="1973.00" arrivalLane="b2[1][1][1]b_0" arrivalPos="325.74" arrivalSpeed="15.31" duration="317.00" routeLength="2873.23" waitingTime="91.00" waitingCount="5" stopTime="0.00" timeLoss="137.35" rerouteNo="0" devices="vehroute_51 tripinfo_51 fcd_51" vType="DEFAULT_VEHTYPE" speedFactor="1.17" vaporized=""/>
    <tripinfo id="49" depart="1610.00" departLane="a153_0" departPos="5.10" departSpeed="0.00" departDelay="0.07" arrival="2000.00" arrivalLane="b4[1][1][1]_0" arrivalPos="171.54" arrivalSpeed="11.48" duration="390.00" routeLength="2686.56" waitingTime="99.00" waitingCount="5" stopTime="0.00" timeLoss="157.54" rerouteNo="0" devices="vehroute_49 tripinfo_49 fcd_49" vType="DEFAULT_VEHTYPE" speedFactor="0.85" vaporized=""/>
    <tripinfo id="50" depart="1620.00" departLane="a153_0" departPos="5.10" departSpeed="0.00" departDelay="0.78" arrival="2003.00" arrivalLane="b4[1][1][1]_0" arrivalPos="171.54" arrivalSpeed="11.59" duration="383.00" routeLength="2686.56" waitingTime="91.00" waitingCount="4" stopTime="0.00" timeLoss="150.76" rerouteNo="0" devices="vehroute_50 tripinfo_50 fcd_50" vType="DEFAULT_VEHTYPE" speedFactor="0.85" vaporized=""/>
    <tripinfo id="52" depart="1733.00" departLane="a153_0" departPos="5.10" departSpeed="0.00" departDelay="0.16" arrival="2086.00" arrivalLane="b4[1][1][1]_0" arrivalPos="171.54" arrivalSpeed="12.89" duration="353.00" routeLength="2686.56" waitingTime="109.00" waitingCount="7" stopTime="0.00" timeLoss="158.43" rerouteNo="0" devices="vehroute_52 tripinfo_52 fcd_52" vType="DEFAULT_VEHTYPE" speedFactor="1.02" vaporized=""/>
    <tripinfo id="53" depart="1754.00" departLane="a153_0" departPos="5.10" departSpeed="0.00" departDelay="0.58" arrival="2088.00" arrivalLane="b4[1][1][1]_0" arrivalPos="171.54" arrivalSpeed="14.82" duration="334.00" routeLength="2686.56" waitingTime="87.00" waitingCount="5" stopTime="0.00" timeLoss="152.96" rerouteNo="0" devices="vehroute_53 tripinfo_53 fcd_53" vType="DEFAULT_VEHTYPE" speedFactor="1.10" vaporized=""/>
    <tripinfo id="57" depart="1834.00" departLane="a161_0" departPos="5.10" departSpeed="0.00" departDelay="0.08" arrival="2099.00" arrivalLane="b2[1][1][1]b_0" arrivalPos="325.74" arrivalSpeed="15.46" duration="265.00" routeLength="2868.74" waitingTime="49.00" waitingCount="2" stopTime="0.00" timeLoss="81.98" rerouteNo="0" devices="vehroute_57 tripinfo_57 fcd_57" vType="DEFAULT_VEHTYPE" speedFactor="1.14" vaporized=""/>
    <tripinfo id="54" depart="1790.00" departLane="a161_0" departPos="5.10" departSpeed="0.00" departDelay="0.93" arrival="2102.00" arrivalLane="b2[1][1][1]b_0" arrivalPos="325.74" arrivalSpeed="13.08" duration="312.00" routeLength="2873.23" waitingTime="65.00" waitingCount="4" stopTime="0.00" timeLoss="103.62" rerouteNo="0" devices="vehroute_54 tripinfo_54 fcd_54" vType="DEFAULT_VEHTYPE" speedFactor="1.00" vaporized=""/>
    <tripinfo id="55" depart="1810.00" departLane="a161_0" departPos="5.10" departSpeed="0.00" departDelay="0.76" arrival="2104.00" arrivalLane="b2[1][1][1]b_0" arrivalPos="325.74" arrivalSpeed="13.35" duration="294.00" routeLength="2868.74" waitingTime="46.00" waitingCount="3" stopTime="0.00" timeLoss="84.10" rerouteNo="0" devices="vehroute_55 tripinfo_55 fcd_55" vType="DEFAULT_VEHTYPE" speedFactor="1.00" vaporized=""/>
    <tripinfo id="58" depart="1857.00" departLane="a153_0" departPos="5.10" departSpeed="0.00" departDelay="0.55" arrival="2212.00" arrivalLane="b4[1][1][1]_0" arrivalPos="171.54" arrivalSpeed="14.14" duration="355.00" routeLength="2686.56" waitingTime="113.00" waitingCount="3" stopTime="0.00" timeLoss="161.64" rerouteNo="0" devices="vehroute_58 tripinfo_58 fcd_58" vType="DEFAULT_VEHTYPE" speedFactor="1.02" vaporized=""/>
    <tripinfo id="56" depart="1823.00" departLane="a153_0" departPos="5.10" departSpeed="0.00" departDelay="0.89" arrival="2217.00" arrivalLane="b4[1][1][1]_0" arrivalPos="171.54" arrivalSpeed="11.78" duration="394.00" routeLength="2686.56" waitingTime="123.00" waitingCount="6" stopTime="0.00" timeLoss="174.26" rerouteNo="0" devices="vehroute_56 tripinfo_56 fcd_56" vType="DEFAULT_VEHTYPE" speedFactor="0.90" vaporized=""/>
    <tripinfo id="59" depart="1898.00" departLane="a161_0" departPos="5.10" departSpeed="0.00" departDelay="0.65" arrival="2228.00" arrivalLane="b2[1][1][1]b_0" arrivalPos="325.74" arrivalSpeed="12.38" duration="330.00" routeLength="2870.27" waitingTime="72.00" waitingCount="5" stopTime="0.00" timeLoss="113.77" rerouteNo="0" devices="vehroute_59 tripinfo_59 fcd_59" vType="DEFAULT_VEHTYPE" speedFactor="0.97" vaporized=""/>
    <tripinfo id="60" depart="1979.00" departLane="a153_0" departPos="5.10" departSpeed="0.00" departDelay="0.69" arrival="2337.00" arrivalLane="b4[1][1][1]_0" arrivalPos="171.54" arrivalSpeed="14.73" duration="358.00" routeLength="2686.56" waitingTime="123.00" waitingCount="6" stopTime="0.00" timeLoss="176.01" rerouteNo="0" devices="vehroute_60 tripinfo_60 fcd_60" vType="DEFAULT_VEHTYPE" speedFactor="1.08" vaporized=""/>
    <tripinfo id="61" depart="1994.00" departLane="a161_0" departPos="5.10" departSpeed="0.00" departDelay="0.31" arrival="2349.00" arrivalLane="b2[1][1][1]b_0" arrivalPos="325.74" arrivalSpeed="14.39" duration="355.00" routeLength="2873.23" waitingTime="125.00" waitingCount="5" stopTime="0.00" timeLoss="167.64" rerouteNo="0" devices="vehroute_61 tripinfo_61 fcd_61" vType="DEFAULT_VEHTYPE" speedFactor="1.12" vaporized=""/>
    <tripinfo id="62" depart="2163.00" departLane="a153_0" departPos="5.10" departSpeed="0.00" departDelay="0.86" arrival="2465.00" arrivalLane="b4[1][1][1]_0" arrivalPos="171.54" arrivalSpeed="13.16" duration="302.00" routeLength="2686.56" waitingTime="61.00" waitingCount="4" stopTime="0.00" timeLoss="107.82" rerouteNo="0" devices="vehroute_62 tripinfo_62 fcd_62" vType="DEFAULT_VEHTYPE" speedFactor="1.02" vaporized=""/>
    <tripinfo id="63" depart="2183.00" departLane="a161_0" departPos="5.10" departSpeed="0.00" departDelay="0.49" arrival="2478.00" arrivalLane="b2[1][1][1]b_0" arrivalPos="325.74" arrivalSpeed="13.23" duration="295.00" routeLength="2870.27" waitingTime="46.00" waitingCount="4" stopTime="0.00" timeLoss="83.08" rerouteNo="0" devices="vehroute_63 tripinfo_63 fcd_63" vType="DEFAULT_VEHTYPE" speedFactor="0.99" vaporized=""/>
    <tripinfo id="64" depart="2215.00" departLane="a153_0" departPos="5.10" departSpeed="0.00" departDelay="0.21" arrival="2591.00" arrivalLane="b4[1][1][1]_0" arrivalPos="171.54" arrivalSpeed="12.80" duration="376.00" routeLength="2686.56" waitingTime="112.00" waitingCount="7" stopTime="0.00" timeLoss="166.05" rerouteNo="0" devices="vehroute_64 tripinfo_64 fcd_64" vType="DEFAULT_VEHTYPE" speedFactor="0.94" vaporized=""/>
    <tripinfo id="66" depart="2247.00" departLane="a153_0" departPos="5.10" departSpeed="0.00" departDelay="0.97" arrival="2595.00" arrivalLane="b4[1][1][1]_0" arrivalPos="171.54" arrivalSpeed="12.59" duration="348.00" routeLength="2686.56" waitingTime="67.00" waitingCount="5" stopTime="0.00" timeLoss="128.64" rerouteNo="0" devices="vehroute_66 tripinfo_66 fcd_66" vType="DEFAULT_VEHTYPE" speedFactor="0.91" vaporized=""/>