<?xml version="1.0" encoding="UTF-8"?>

<!-- generated on 2025-03-21 18:07:21 by Eclipse SUMO sumo Version 1.21.0
<sumoConfiguration xmlns:xsi="http://www.w3.org/2001/XMLSchema-instance" xsi:noNamespaceSchemaLocation="http://sumo.dlr.de/xsd/sumoConfiguration.xsd">

    <input>
        <net-file value="${STATICPATH}/joined_lanes.net.xml"/>
        <route-files value="${SIMULATIONPATH}/generatedRoutes.rou.xml"/>
        <additional-files value="${STATICPATH}/detectors.add.xml,${STATICPATH}/joined_vtypes.add.xml,${STATICPATH}/joined_tls.add.xml"/>
    </input>

    <output>
        <fcd-output value="${SIMULATIONPATH}/fcd.xml"/>
        <queue-output value="${SIMULATIONPATH}/queue.xml"/>
        <summary-output value="${SIMULATIONPATH}/summary.xml"/>
        <tripinfo-output value="${SIMULATIONPATH}/tripinfos.xml"/>
        <vehroute-output value="${SIMULATIONPATH}/vehroute.xml"/>
        <save-state.prefix value="configs\state"/>
    </output>

    <processing>
        <ignore-junction-blocker value="1"/>
        <ignore-route-errors value="true"/>
        <time-to-teleport value="-1"/>
    </processing>

    <report>
        <log value="C:/Users/fabio/Desktop/sumo_log.txt"/>
        <no-step-log value="true"/>
    </report>

    <emissions>
        <phemlight-path value="configs\./PHEMlight/"/>
    </emissions>

    <traci_server>
        <remote-port value="60306"/>
    </traci_server>

</sumoConfiguration>
-->

<tripinfos xmlns:xsi="http://www.w3.org/2001/XMLSchema-instance" xsi:noNamespaceSchemaLocation="http://sumo.dlr.de/xsd/tripinfo_file.xsd">
    <tripinfo id="3" depart="70.00" departLane="a210_0" departPos="5.10" departSpeed="0.00" departDelay="0.91" arrival="407.00" arrivalLane="b10_0" arrivalPos="224.30" arrivalSpeed="14.62" duration="337.00" routeLength="2833.68" waitingTime="109.00" waitingCount="4" stopTime="0.00" timeLoss="148.38" rerouteNo="0" devices="vehroute_3 tripinfo_3 fcd_3" vType="DEFAULT_VEHTYPE" speedFactor="1.08" vaporized=""/>
    <tripinfo id="0" depart="40.00" departLane="a210_0" departPos="5.10" departSpeed="0.00" departDelay="0.29" arrival="411.00" arrivalLane="b4[0]_0" arrivalPos="131.31" arrivalSpeed="14.54" duration="371.00" routeLength="2943.26" waitingTime="123.00" waitingCount="5" stopTime="0.00" timeLoss="168.63" rerouteNo="0" devices="vehroute_0 tripinfo_0 fcd_0" vType="DEFAULT_VEHTYPE" speedFactor="1.06" vaporized=""/>
    <tripinfo id="1" depart="44.00" departLane="a210_0" departPos="5.10" departSpeed="0.00" departDelay="0.41" arrival="412.00" arrivalLane="b10_0" arrivalPos="224.30" arrivalSpeed="11.85" duration="368.00" routeLength="2830.72" waitingTime="111.00" waitingCount="3" stopTime="0.00" timeLoss="150.08" rerouteNo="0" devices="vehroute_1 tripinfo_1 fcd_1" vType="DEFAULT_VEHTYPE" speedFactor="0.94" vaporized=""/>
    <tripinfo id="5" depart="139.00" departLane="a210_0" departPos="5.10" departSpeed="0.00" departDelay="0.67" arrival="416.00" arrivalLane="b10_0" arrivalPos="224.30" arrivalSpeed="10.34" duration="277.00" routeLength="2833.68" waitingTime="5.00" waitingCount="1" stopTime="0.00" timeLoss="31.09" rerouteNo="0" devices="vehroute_5 tripinfo_5 fcd_5" vType="DEFAULT_VEHTYPE" speedFactor="0.83" vaporized=""/>
    <tripinfo id="2" depart="47.00" departLane="a210_0" departPos="5.10" departSpeed="0.00" departDelay="3.37" arrival="417.00" arrivalLane="b4[0]_0" arrivalPos="131.31" arrivalSpeed="13.75" duration="370.00" routeLength="2943.26" waitingTime="108.00" waitingCount="3" stopTime="0.00" timeLoss="157.42" rerouteNo="0" devices="vehroute_2 tripinfo_2 fcd_2" vType="DEFAULT_VEHTYPE" speedFactor="1.01" vaporized=""/>
    <tripinfo id="4" depart="76.00" departLane="a210_0" departPos="5.10" departSpeed="0.00" departDelay="0.60" arrival="419.00" arrivalLane="b4[0]_1" arrivalPos="131.31" arrivalSpeed="13.99" duration="343.00" routeLength="2930.71" waitingTime="82.00" waitingCount="2" stopTime="0.00" timeLoss="134.87" rerouteNo="0" devices="vehroute_4 tripinfo_4 fcd_4" vType="DEFAULT_VEHTYPE" speedFactor="1.03" vaporized=""/>
    <tripinfo id="6" depart="151.00" departLane="a210_0" departPos="5.10" departSpeed="0.00" departDelay="0.98" arrival="422.00" arrivalLane="b4[0]_0" arrivalPos="131.31" arrivalSpeed="13.93" duration="271.00" routeLength="2943.26" waitingTime="14.00" waitingCount="3" stopTime="0.00" timeLoss="64.30" rerouteNo="0" devices="vehroute_6 tripinfo_6 fcd_6" vType="DEFAULT_VEHTYPE" speedFactor="1.05" vaporized=""/>
    <tripinfo id="7" depart="225.00" departLane="a210_0" departPos="5.10" departSpeed="0.00" departDelay="0.75" arrival="549.00" arrivalLane="b4[0]_0" arrivalPos="131.31" arrivalSpeed="11.56" duration="324.00" routeLength="2943.26" waitingTime="40.00" waitingCount="3" stopTime="0.00" timeLoss="80.98" rerouteNo="0" devices="vehroute_7 tripinfo_7 fcd_7" vType="DEFAULT_VEHTYPE" speedFactor="0.89" vaporized=""/>
    <tripinfo id="8" depart="240.00" departLane="a210_0" departPos="5.10" departSpeed="0.00" departDelay="0.05" arrival="551.00" arrivalLane="b4[0]_0" arrivalPos="131.31" arrivalSpeed="12.99" duration="311.00" routeLength="2943.26" waitingTime="41.00" waitingCount="2" stopTime="0.00" timeLoss="80.83" rerouteNo="0" devices="vehroute_8 tripinfo_8 fcd_8" vType="DEFAULT_VEHTYPE" speedFactor="0.94" vaporized=""/>
    <tripinfo id="10" depart="260.00" departLane="a210_0" departPos="5.10" departSpeed="0.00" departDelay="0.50" arrival="551.00" arrivalLane="b4[0]_1" arrivalPos="131.31" arrivalSpeed="14.97" duration="291.00" routeLength="2930.71" waitingTime="38.00" waitingCount="1" stopTime="0.00" timeLoss="94.92" rerouteNo="0" devices="vehroute_10 tripinfo_10 fcd_10" vType="DEFAULT_VEHTYPE" speedFactor="1.09" vaporized=""/>
    <tripinfo id="11" depart="296.00" departLane="a210_0" departPos="5.10" departSpeed="0.00" departDelay="0.18" arrival="557.00" arrivalLane="b4[0]_1" arrivalPos="131.31" arrivalSpeed="13.65" duration="261.00" routeLength="2930.71" waitingTime="0.00" waitingCount="0" stopTime="0.00" timeLoss="51.63" rerouteNo="0" devices="vehroute_11 tripinfo_11 fcd_11" vType="DEFAULT_VEHTYPE" speedFactor="1.03" vaporized=""/>
    <tripinfo id="9" depart="257.00" departLane="a210_0" departPos="5.10" departSpeed="0.00" departDelay="0.48" arrival="558.00" arrivalLane="b4[0]_0" arrivalPos="131.31" arrivalSpeed="11.08" duration="301.00" routeLength="2943.26" waitingTime="15.00" waitingCount="1" stopTime="0.00" timeLoss="49.35" rerouteNo="0" devices="vehroute_9 tripinfo_9 fcd_9" vType="DEFAULT_VEHTYPE" speedFactor="0.86" vaporized=""/>
    <tripinfo id="12" depart="306.00" departLane="a210_0" departPos="5.10" departSpeed="0.00" departDelay="0.75" arrival="660.00" arrivalLane="b4[0]_0" arrivalPos="131.31" arrivalSpeed="14.44" duration="354.00" routeLength="2943.26" waitingTime="107.00" waitingCount="3" stopTime="0.00" timeLoss="147.76" rerouteNo="0" devices="vehroute_12 tripinfo_12 fcd_12" vType="DEFAULT_VEHTYPE" speedFactor="1.05" vaporized=""/>
    <tripinfo id="13" depart="354.00" departLane="a210_0" departPos="5.10" departSpeed="0.00" departDelay="0.90" arrival="661.00" arrivalLane="b4[0]_1" arrivalPos="131.31" arrivalSpeed="14.68" duration="307.00" routeLength="2930.71" waitingTime="72.00" waitingCount="3" stopTime="0.00" timeLoss="116.58" rerouteNo="0" devices="vehroute_13 tripinfo_13 fcd_13" vType="DEFAULT_VEHTYPE" speedFactor="1.12" vaporized=""/>
    <tripinfo id="14" depart="357.00" departLane="a210_0" departPos="5.10" departSpeed="0.00" departDelay="2.78" arrival="786.00" arrivalLane="b4[0]_0" arrivalPos="131.31" arrivalSpeed="13.32" duration="429.00" routeLength="2943.26" waitingTime="156.00" waitingCount="5" stopTime="0.00" timeLoss="212.05" rerouteNo="0" devices="vehroute_14 tripinfo_14 fcd_14" vType="DEFAULT_VEHTYPE" speedFactor="0.99" vaporized=""/>
    <tripinfo id="15" depart="364.00" departLane="a210_0" departPos="5.10" departSpeed="0.00" departDelay="0.24" arrival="792.00" arrivalLane="b4[0]_0" arrivalPos="131.31" arrivalSpeed="11.97" duration="428.00" routeLength="2943.26" waitingTime="144.00" waitingCount="4" stopTime="0.00" timeLoss="195.07" rerouteNo="0" devices="vehroute_15 tripinfo_15 fcd_15" vType="DEFAULT_VEHTYPE" speedFactor="0.93" vaporized=""/>
    <tripinfo id="16" depart="396.00" departLane="a210_0" departPos="5.10" departSpeed="0.00" departDelay="0.95" arrival="795.00" arrivalLane="b4[0]_0" arrivalPos="131.31" arrivalSpeed="11.98" duration="399.00" routeLength="2943.26" waitingTime="110.00" waitingCount="3" stopTime="0.00" timeLoss="152.96" rerouteNo="0" devices="vehroute_16 tripinfo_16 fcd_16" vType="DEFAULT_VEHTYPE" speedFactor="0.88" vaporized=""/>
    <tripinfo id="17" depart="437.00" departLane="a210_0" departPos="5.10" departSpeed="0.00" departDelay="0.01" arrival="797.00" arrivalLane="b4[0]_0" arrivalPos="131.31" arrivalSpeed="13.07" duration="360.00" routeLength="2943.26" waitingTime="86.00" waitingCount="2" stopTime="0.00" timeLoss="131.20" rerouteNo="0" devices="vehroute_17 tripinfo_17 fcd_17" vType="DEFAULT_VEHTYPE" speedFactor="0.94" vaporized=""/>
    <tripinfo id="19" depart="494.00" departLane="a210_0" departPos="5.10" departSpeed="0.00" departDelay="0.41" arrival="799.00" arrivalLane="b4[0]_0" arrivalPos="131.31" arrivalSpeed="15.19" duration="305.00" routeLength="2943.26" waitingTime="36.00" waitingCount="1" stopTime="0.00" timeLoss="119.23" rerouteNo="0" devices="vehroute_19 tripinfo_19 fcd_19" vType="DEFAULT_VEHTYPE" speedFactor="1.16" vaporized=""/>
    <tripinfo id="18" depart="471.00" departLane="a210_0" departPos="5.10" departSpeed="0.00" departDelay="0.44" arrival="800.00" arrivalLane="b4[0]_1" arrivalPos="131.31" arrivalSpeed="12.42" duration="329.00" routeLength="2930.71" waitingTime="45.00" waitingCount="3" stopTime="0.00" timeLoss="98.91" rerouteNo="0" devices="vehroute_18 tripinfo_18 fcd_18" vType="DEFAULT_VEHTYPE" speedFactor="0.94" vaporized=""/>
    <tripinfo id="20" depart="541.00" departLane="a210_0" departPos="5.10" departSpeed="0.00" departDelay="0.82" arrival="906.00" arrivalLane="b4[0]_0" arrivalPos="131.31" arrivalSpeed="13.51" duration="365.00" routeLength="2943.26" waitingTime="106.00" waitingCount="5" stopTime="0.00" timeLoss="153.82" rerouteNo="0" devices="vehroute_20 tripinfo_20 fcd_20" vType="DEFAULT_VEHTYPE" speedFactor="1.02" vaporized=""/>
    <tripinfo id="21" depart="544.00" departLane="a210_0" departPos="5.10" departSpeed="0.00" departDelay="3.39" arrival="909.00" arrivalLane="b4[0]_0" arrivalPos="131.31" arrivalSpeed="13.90" duration="365.00" routeLength="2943.26" waitingTime="100.00" waitingCount="4" stopTime="0.00" timeLoss="151.30" rerouteNo="0" devices="vehroute_21 tripinfo_21 fcd_21" vType="DEFAULT_VEHTYPE" speedFactor="1.01" vaporized=""/>
    <tripinfo id="22" depart="627.00" departLane="a210_0" departPos="5.10" departSpeed="0.00" departDelay="0.21" arrival="914.00" arrivalLane="b4[0]_0" arrivalPos="131.31" arrivalSpeed="13.13" duration="287.00" routeLength="2943.26" waitingTime="16.00" waitingCount="2" stopTime="0.00" timeLoss="65.18" rerouteNo="0" devices="vehroute_22 tripinfo_22 fcd_22" vType="DEFAULT_VEHTYPE" speedFactor="0.97" vaporized=""/>
    <tripinfo id="23" depart="667.00" departLane="a210_0" departPos="5.10" departSpeed="0.00" departDelay="0.30" arrival="1042.00" arrivalLane="b4[0]_0" arrivalPos="131.31" arrivalSpeed="11.30" duration="375.00" routeLength="2943.26" waitingTime="93.00" waitingCount="4" stopTime="0.00" timeLoss="132.14" rerouteNo="0" devices="vehroute_23 tripinfo_23 fcd_23" vType="DEFAULT_VEHTYPE" speedFactor="0.89" vaporized=""/>
    <tripinfo id="24" depart="701.00" departLane="a210_0" departPos="5.10" departSpeed="0.00" departDelay="0.36" arrival="1046.00" arrivalLane="b4[0]_0" arrivalPos="131.31" arrivalSpeed="11.42" duration="345.00" routeLength="2943.26" waitingTime="42.00" waitingCount="3" stopTime="0.00" timeLoss="84.26" rerouteNo="0" devices="vehroute_24 tripinfo_24 fcd_24" vType="DEFAULT_VEHTYPE" speedFactor="0.83" vaporized=""/>
    <tripinfo id="25" depart="741.00" departLane="a210_0" departPos="5.10" departSpeed="0.00" departDelay="0.53" arrival="1048.00" arrivalLane="b4[0]_0" arrivalPos="131.31" arrivalSpeed="11.60" duration="307.00" routeLength="2943.26" waitingTime="19.00" waitingCount="2" stopTime="0.00" timeLoss="60.59" rerouteNo="0" devices="vehroute_25 tripinfo_25 fcd_25" vType="DEFAULT_VEHTYPE" speedFactor="0.87" vaporized=""/>
    <tripinfo id="26" depart="775.00" departLane="a210_0" departPos="5.10" departSpeed="0.00" departDelay="0.27" arrival="1050.00" arrivalLane="b4[0]_1" arrivalPos="131.31" arrivalSpeed="12.27" duration="275.00" routeLength="2930.71" waitingTime="0.00" waitingCount="0" stopTime="0.00" timeLoss="40.76" rerouteNo="0" devices="vehroute_26 tripinfo_26 fcd_26" vType="DEFAULT_VEHTYPE" speedFactor="0.92" vaporized=""/>
    <tripinfo id="28" depart="917.00" departLane="a210_0" departPos="5.10" departSpeed="0.00" departDelay="0.19" arrival="1158.00" arrivalLane="b4[0]_1" arrivalPos="131.31" arrivalSpeed="14.64" duration="241.00" routeLength="2930.71" waitingTime="3.00" waitingCount="2" stopTime="0.00" timeLoss="51.32" rerouteNo="0" devices="vehroute_28 tripinfo_28 fcd_28" vType="DEFAULT_VEHTYPE" speedFactor="1.13" vaporized=""/>
    <tripinfo id="27" depart="869.00" departLane="a210_0" departPos="5.10" departSpeed="0.00" departDelay="0.67" arrival="1159.00" arrivalLane="b4[0]_0" arrivalPos="131.31" arrivalSpeed="12.52" duration="290.00" routeLength="2943.26" waitingTime="19.00" waitingCount="3" stopTime="0.00" timeLoss="63.41" rerouteNo="0" devices="vehroute_27 tripinfo_27 fcd_27" vType="DEFAULT_VEHTYPE" speedFactor="0.95" vaporized=""/>
    <tripinfo id="30" depart="955.00" departLane="a210_0" departPos="5.10" departSpeed="0.00" departDelay="0.83" arrival="1281.00" arrivalLane="b4[0]_1" arrivalPos="131.31" arrivalSpeed="15.94" duration="326.00" routeLength="2930.71" waitingTime="64.00" waitingCount="4" stopTime="0.00" timeLoss="143.53" rerouteNo="0" devices="vehroute_30 tripinfo_30 fcd_30" vType="DEFAULT_VEHTYPE" speedFactor="1.18" vaporized=""/>
    <tripinfo id="29" depart="936.00" departLane="a210_0" departPos="5.10" departSpeed="0.00" departDelay="0.67" arrival="1283.00" arrivalLane="b4[0]_0" arrivalPos="131.31" arrivalSpeed="12.79" duration="347.00" routeLength="2943.26" waitingTime="66.00" waitingCount="4" stopTime="0.00" timeLoss="116.56" rerouteNo="0" devices="vehroute_29 tripinfo_29 fcd_29" vType="DEFAULT_VEHTYPE" speedFactor="0.93" vaporized=""/>
    <tripinfo id="31" depart="1064.00" departLane="a210_0" departPos="5.10" departSpeed="0.00" departDelay="0.40" arrival="1395.00" arrivalLane="b10_0" arrivalPos="224.30" arrivalSpeed="15.76" duration="331.00" routeLength="2833.68" waitingTime="117.00" waitingCount="3" stopTime="0.00" timeLoss="154.13" rerouteNo="0" devices="vehroute_31 tripinfo_31 fcd_31" vType="DEFAULT_VEHTYPE" speedFactor="1.15" vaporized=""/>
    <tripinfo id="33" depart="1103.00" departLane="a210_0" departPos="5.10" departSpeed="0.00" departDelay="0.49" arrival="1398.00" arrivalLane="b4[0]_1" arrivalPos="131.31" arrivalSpeed="15.02" duration="295.00" routeLength="2930.71" waitingTime="55.00" waitingCount="4" stopTime="0.00" timeLoss="111.86" rerouteNo="0" devices="vehroute_33 tripinfo_33 fcd_33" vType="DEFAULT_VEHTYPE" speedFactor="1.17" vaporized=""/>
    <tripinfo id="32" depart="1068.00" departLane="a210_0" departPos="5.10" departSpeed="0.00" departDelay="0.47" arrival="1399.00" arrivalLane="b4[0]_0" arrivalPos="131.31" arrivalSpeed="12.88" duration="331.00" routeLength="2943.26" waitingTime="74.00" waitingCount="4" stopTime="0.00" timeLoss="117.65" rerouteNo="0" devices="vehroute_32 tripinfo_32 fcd_32" vType="DEFAULT_VEHTYPE" speedFactor="1.01" vaporized=""/>
    <tripinfo id="34" depart="1136.00" departLane="a210_0" departPos="5.10" departSpeed="0.00" departDelay="0.54" arrival="1405.00" arrivalLane="b4[0]_0" arrivalPos="131.31" arrivalSpeed="12.69" duration="269.00" routeLength="2943.26" waitingTime="6.00" waitingCount="2" stopTime="0.00" timeLoss="52.44" rerouteNo="0" devices="vehroute_34 tripinfo_34 fcd_34" vType="DEFAULT_VEHTYPE" speedFactor="0.99" vaporized=""/>
    <tripinfo id="35" depart="1169.00" departLane="a210_0" departPos="5.10" departSpeed="0.00" departDelay="0.17" arrival="1430.00" arrivalLane="b10_0" arrivalPos="224.30" arrivalSpeed="13.69" duration="261.00" routeLength="2833.68" waitingTime="31.00" waitingCount="3" stopTime="0.00" timeLoss="60.49" rerouteNo="0" devices="vehroute_35 tripinfo_35 fcd_35" vType="DEFAULT_VEHTYPE" speedFactor="1.02" vaporized=""/>
    <tripinfo id="37" depart="1272.00" departLane="a210_0" departPos="5.10" departSpeed="0.00" departDelay="0.29" arrival="1524.00" arrivalLane="b4[0]_1" arrivalPos="131.31" arrivalSpeed="15.90" duration="252.00" routeLength="2930.71" waitingTime="2.00" waitingCount="1" stopTime="0.00" timeLoss="69.71" rerouteNo="0" devices="vehroute_37 tripinfo_37 fcd_37" vType="DEFAULT_VEHTYPE" speedFactor="1.18" vaporized=""/>
    <tripinfo id="36" depart="1259.00" departLane="a210_0" departPos="5.10" departSpeed="0.00" departDelay="0.07" arrival="1526.00" arrivalLane="b4[0]_0" arrivalPos="131.31" arrivalSpeed="13.11" duration="267.00" routeLength="2943.26" waitingTime="6.00" waitingCount="3" stopTime="0.00" timeLoss="45.93" rerouteNo="0" devices="vehroute_36 tripinfo_36 fcd_36" vType="DEFAULT_VEHTYPE" speedFactor="0.97" vaporized=""/>
    <tripinfo id="38" depart="1324.00" departLane="a210_0" departPos="5.10" departSpeed="0.00" departDelay="0.07" arrival="1640.00" arrivalLane="b4[0]_0" arrivalPos="131.31" arrivalSpeed="14.20" duration="316.00" routeLength="2943.26" waitingTime="79.00" waitingCount="4" stopTime="0.00" timeLoss="120.89" rerouteNo="0" devices="vehroute_38 tripinfo_38 fcd_38" vType="DEFAULT_VEHTYPE" speedFactor="1.10" vaporized=""/>
    <tripinfo id="39" depart="1354.00" departLane="a210_0" departPos="5.10" departSpeed="0.00" departDelay="0.80" arrival="1651.00" arrivalLane="b4[0]_0" arrivalPos="131.31" arrivalSpeed="11.76" duration="297.00" routeLength="2943.26" waitingTime="24.00" waitingCount="1" stopTime="0.00" timeLoss="57.10" rerouteNo="0" devices="vehroute_39 tripinfo_39 fcd_39" vType="DEFAULT_VEHTYPE" speedFactor="0.90" vaporized=""/>
    <tripinfo id="40" depart="1375.00" departLane="a210_0" departPos="5.10" departSpeed="0.00" departDelay="0.02" arrival="1652.00" arrivalLane="b4[0]_0" arrivalPos="131.31" arrivalSpeed="14.20" duration="277.00" routeLength="2943.26" waitingTime="12.00" waitingCount="2" stopTime="0.00" timeLoss="68.58" rerouteNo="0" devices="vehroute_40 tripinfo_40 fcd_40" vType="DEFAULT_VEHTYPE" speedFactor="1.03" vaporized=""/>
    <tripinfo id="41" depart="1421.00" departLane="a210_0" departPos="5.10" departSpeed="0.00" departDelay="0.89" arrival="1773.00" arrivalLane="b4[0]_0" arrivalPos="131.31" arrivalSpeed="13.00" duration="352.00" routeLength="2943.26" waitingTime="89.00" waitingCount="3" stopTime="0.00" timeLoss="126.98" rerouteNo="0" devices="vehroute_41 tripinfo_41 fcd_41" vType="DEFAULT_VEHTYPE" speedFactor="0.96" vaporized=""/>
    <tripinfo id="42" depart="1491.00" departLane="a210_0" departPos="5.10" departSpeed="0.00" departDelay="0.13" arrival="1775.00" arrivalLane="b4[0]_0" arrivalPos="131.31" arrivalSpeed="13.92" duration="284.00" routeLength="2943.26" waitingTime="31.00" waitingCount="4" stopTime="0.00" timeLoss="86.82" rerouteNo="0" devices="vehroute_42 tripinfo_42 fcd_42" vType="DEFAULT_VEHTYPE" speedFactor="1.09" vaporized=""/>
    <tripinfo id="43" depart="1499.00" departLane="a210_0" departPos="5.10" departSpeed="0.00" departDelay="0.85" arrival="1776.00" arrivalLane="b4[0]_1" arrivalPos="131.31" arrivalSpeed="13.87" duration="277.00" routeLength="2930.71" waitingTime="22.00" waitingCount="2" stopTime="0.00" timeLoss="70.51" rerouteNo="0" devices="vehroute_43 tripinfo_43 fcd_43" vType="DEFAULT_VEHTYPE" speedFactor="1.04" vaporized=""/>
    <tripinfo id="44" depart="1534.00" departLane="a210_0" departPos="5.10" departSpeed="0.00" departDelay="0.10" arrival="1890.00" arrivalLane="b4[0]_0" arrivalPos="131.31" arrivalSpeed="14.03" duration="356.00" routeLength="2943.26" waitingTime="108.00" waitingCount="4" stopTime="0.00" timeLoss="150.37" rerouteNo="0" devices="vehroute_44 tripinfo_44 fcd_44" vType="DEFAULT_VEHTYPE" speedFactor="1.04" vaporized=""/>
    <tripinfo id="45" depart="1576.00" departLane="a210_0" departPos="5.10" departSpeed="0.00" departDelay="0.63" arrival="1892.00" arrivalLane="b4[0]_1" arrivalPos="131.31" arrivalSpeed="13.84" duration="316.00" routeLength="2930.71" waitingTime="69.00" waitingCount="3" stopTime="0.00" timeLoss="118.70" rerouteNo="0" devices="vehroute_45 tripinfo_45 fcd_45" vType="DEFAULT_VEHTYPE" speedFactor="1.09" vaporized=""/>
    <tripinfo id="46" depart="1620.00" departLane="a210_0" departPos="5.10" departSpeed="0.00" departDelay="0.78" arrival="1896.00" arrivalLane="b4[0]_0" arrivalPos="131.31" arrivalSpeed="12.83" duration="276.00" routeLength="2943.26" waitingTime="23.00" waitingCount="2" stopTime="0.00" timeLoss="60.40" rerouteNo="0" devices="vehroute_46 tripinfo_46 fcd_46" vType="DEFAULT_VEHTYPE" speedFactor="1.00" vaporized=""/>
    <tripinfo id="47" depart="1636.00" departLane="a210_0" departPos="5.10" departSpeed="0.00" departDelay="0.24" arrival="1907.00" arrivalLane="b4[0]_0" arrivalPos="131.31" arrivalSpeed="12.17" duration="271.00" routeLength="2943.26" waitingTime="0.00" waitingCount="0" stopTime="0.00" timeLoss="31.35" rerouteNo="0" devices="vehroute_47 tripinfo_47 fcd_47" vType="DEFAULT_VEHTYPE" speedFactor="0.90" vaporized=""/>
    <tripinfo id="48" depart="1655.00" departLane="a210_0" departPos="5.10" departSpeed="0.00" departDelay="0.99" arrival="2026.00" arrivalLane="b4[0]_0" arrivalPos="131.31" arrivalSpeed="11.76" duration="371.00" routeLength="2943.26" waitingTime="87.00" waitingCount="3" stopTime="0.00" timeLoss="125.98" rerouteNo="0" devices="vehroute_48 tripinfo_48 fcd_48" vType="DEFAULT_VEHTYPE" speedFactor="0.88" vaporized=""/>
    <tripinfo id="49" depart="1662.00" departLane="a210_0" departPos="5.10" departSpeed="0.00" departDelay="0.68" arrival="2030.00" arrivalLane="b4[0]_0" arrivalPos="131.31" arrivalSpeed="10.87" duration="368.00" routeLength="2943.26" waitingTime="72.00" waitingCount="3" stopTime="0.00" timeLoss="114.46" rerouteNo="0" devices="vehroute_49 tripinfo_49 fcd_49" vType="DEFAULT_VEHTYPE" speedFactor="0.85" vaporized=""/>
    <tripinfo id="51" depart="1733.00" departLane="a210_0" departPos="5.10" departSpeed="0.00" departDelay="0.16" arrival="2031.00" arrivalLane="b4[0]_1" arrivalPos="131.31" arrivalSpeed="15.71" duration="298.00" routeLength="2930.71" waitingTime="19.00" waitingCount="2" stopTime="0.00" timeLoss="114.19" rerouteNo="0" devices="vehroute_51 tripinfo_51 fcd_51" vType="DEFAULT_VEHTYPE" speedFactor="1.17" vaporized=""/>
    <tripinfo id="50" depart="1714.00" departLane="a210_0" departPos="5.10" departSpeed="0.00" departDelay="0.33" arrival="2033.00" arrivalLane="b4[0]_0" arrivalPos="131.31" arrivalSpeed="11.37" duration="319.00" routeLength="2943.26" waitingTime="20.00" waitingCount="2" stopTime="0.00" timeLoss="66.42" rerouteNo="0" devices="vehroute_50 tripinfo_50 fcd_50" vType="DEFAULT_VEHTYPE" speedFactor="0.85" vaporized=""/>
    <tripinfo id="52" depart="1757.00" departLane="a210_0" departPos="5.10" departSpeed="0.00" departDelay="0.73" arrival="2136.00" arrivalLane="b4[0]_0" arrivalPos="131.31" arrivalSpeed="13.30" duration="379.00" routeLength="2943.26" waitingTime="127.00" waitingCount="4" stopTime="0.00" timeLoss="167.03" rerouteNo="0" devices="vehroute_52 tripinfo_52 fcd_52" vType="DEFAULT_VEHTYPE" speedFactor="1.02" vaporized=""/>
    <tripinfo id="53" depart="1760.00" departLane="a210_0" departPos="5.10" departSpeed="0.00" departDelay="2.33" arrival="2138.00" arrivalLane="b4[0]_0" arrivalPos="131.31" arrivalSpeed="14.38" duration="378.00" routeLength="2943.26" waitingTime="122.00" waitingCount="3" stopTime="0.00" timeLoss="180.90" rerouteNo="0" devices="vehroute_53 tripinfo_53 fcd_53" vType="DEFAULT_VEHTYPE" speedFactor="1.10" vaporized=""/>
    <tripinfo id="54" depart="1834.00" departLane="a210_0" departPos="5.10" departSpeed="0.00" departDelay="0.08" arrival="2261.00" arrivalLane="b4[0]_0" arrivalPos="131.31" arrivalSpeed="13.44" duration="427.00" routeLength="2943.26" waitingTime="164.00" waitingCount="6" stopTime="0.00" timeLoss="213.29" rerouteNo="0" devices="vehroute_54 tripinfo_54 fcd_54" vType="DEFAULT_VEHTYPE" speedFactor="1.00" vaporized=""/>
    <tripinfo id="55" depart="1844.00" departLane="a210_0" departPos="5.10" departSpeed="0.00" departDelay="0.00" arrival="2264.00" arrivalLane="b4[0]_1" arrivalPos="131.31" arrivalSpeed="12.73" duration="420.00" routeLength="2930.71" waitingTime="152.00" waitingCount="5" stopTime="0.00" timeLoss="204.10" rerouteNo="0" devices="vehroute_55 tripinfo_55 fcd_55" vType="DEFAULT_VEHTYPE" speedFactor="1.00" vaporized=""/>
    <tripinfo id="56" depart="1867.00" departLane="a210_0" departPos="5.10" departSpeed="0.00" departDelay="0.73" arrival="2270.00" arrivalLane="b4[0]_0" arrivalPos="131.31" arrivalSpeed="12.18" duration="403.00" routeLength="2943.26" waitingTime="113.00" waitingCount="4" stopTime="0.00" timeLoss="163.45" rerouteNo="0" devices="vehroute_56 tripinfo_56 fcd_56" vType="DEFAULT_VEHTYPE" speedFactor="0.90" vaporized=""/>
    <tripinfo id="57" depart="1898.00" departLane="a210_0" departPos="5.10" departSpeed="0.00" departDelay="0.65" arrival="2272.00" arrivalLane="b4[0]_0" arrivalPos="131.31" arrivalSpeed="15.17" duration="374.00" routeLength="2943.26" waitingTime="101.00" waitingCount="4" stopTime="0.00" timeLoss="184.68" rerouteNo="0" devices="vehroute_57 tripinfo_57 fcd_57" vType="DEFAULT_VEHTYPE" speedFactor="1.14" vaporized=""/>
    <tripinfo id="58" depart="1928.00" departLane="a210_0" departPos="5.10" departSpeed="0.00" departDelay="0.88" arrival="2272.00" arrivalLane="b4[0]_1" arrivalPos="131.31" arrivalSpeed="14.21" duration="344.00" routeLength="2930.71" waitingTime="74.00" waitingCount="4" stopTime="0.00" timeLoss="134.60" rerouteNo="0" devices="vehroute_58 tripinfo_58 fcd_58" vType="DEFAULT_VEHTYPE" speedFactor="1.02" vaporized=""/>
    <tripinfo id="59" depart="1973.00" departLane="a210_0" departPos="5.10" departSpeed="0.00" departDelay="0.35" arrival="2277.00" arrivalLane="b4[0]_0" arrivalPos="131.31" arrivalSpeed="12.49" duration="304.00" routeLength="2943.26" waitingTime="26.00" waitingCount="2" stopTime="0.00" timeLoss="81.12" rerouteNo="0" devices="vehroute_59 tripinfo_59 fcd_59" vType="DEFAULT_VEHTYPE" speedFactor="0.97" vaporized=""/>
    <tripinfo id="60" depart="2211.00" departLane="a210_0" departPos="5.10" departSpeed="0.00" departDelay="0.84" arrival="2501.00" arrivalLane="b4[0]_0" arrivalPos="131.31" arrivalSpeed="14.95" duration="290.00" routeLength="2943.26" waitingTime="43.00" waitingCount="5" stopTime="0.00" timeLoss="91.54" rerouteNo="0" devices="vehroute_60 tripinfo_60 fcd_60" vType="DEFAULT_VEHTYPE" speedFactor="1.08" vaporized=""/>
    <tripinfo id="61" depart="2215.00" departLane="a210_0" departPos="5.10" departSpeed="0.00" departDelay="0.95" arrival="2504.00" arrivalLane="b4[0]_0" arrivalPos="131.31" arrivalSpeed="15.54" duration="289.00" routeLength="2943.26" waitingTime="37.00" waitingCount="4" stopTime="0.00" timeLoss="96.41" rerouteNo="0" devices="vehroute_61 tripinfo_61 fcd_61" vType="DEFAULT_VEHTYPE" speedFactor="1.12" vaporized=""/>
    <tripinfo id="63" depart="2247.00" departLane="a210_0" departPos="5.10" departSpeed="0.00" departDelay="0.97" arrival="2510.00" arrivalLane="b4[0]_0" arrivalPos="131.31" arrivalSpeed="13.63" duration="263.00" routeLength="2943.26" waitingTime="6.00" waitingCount="2" stopTime="0.00" timeLoss="44.90" rerouteNo="0" devices="vehroute_63 tripinfo_63 fcd_63" vType="DEFAULT_VEHTYPE" speedFactor="0.99" vaporized=""/>
    <tripinfo id="64" depart="2250.00" departLane="a210_0" departPos="5.10" departSpeed="0.00" departDelay="1.21" arrival="2513.00" arrivalLane="b4[0]_0" arrivalPos="131.31" arrivalSpeed="12.15" duration="263.00" routeLength="2943.26" waitingTime="3.00" waitingCount="1" stopTime="0.00" timeLoss="33.87" rerouteNo="0" devices="vehroute_64 tripinfo_64 fcd_64" vType="DEFAULT_VEHTYPE" speedFactor="0.94" vaporized=""/>
    <tripinfo id="62" depart="2218.00" departLane="a210_0" departPos="5.10" departSpeed="0.00" departDelay="3.21" arrival="2578.00" arrivalLane="b10_0" arrivalPos="224.30" arrivalSpeed="14.10" duration="360.00" routeLength="2833.68" waitingTime="125.00" waitingCount="4" stopTime="0.00" timeLoss="158.61" rerouteNo="0" devices="vehroute_62 tripinfo_62 fcd_62" vType="DEFAULT_VEHTYPE" speedFactor="1.02" vaporized=""/>
    <tripinfo id="65" depart="2293.00" departLane="a210_0" departPos="5.10" departSpeed="0.00" departDelay="0.99" arrival="2640.00" arrivalLane="b4[0]_0" arrivalPos="131.31" arrivalSpeed="11.30" duration="347.00" routeLength="2943.26" waitingTime="56.00" waitingCount="4" stopTime="0.00" timeLoss="102.88" rerouteNo="0" devices="vehroute_65 tripinfo_65 fcd_65" vType="DEFAULT_VEHTYPE" speedFactor="0.88" vaporized=""/>
    <tripinfo id="66" depart="2296.00" departLane="a210_0" departPos="5.10" departSpeed="0.00" departDelay="2.07" arrival="2643.00" arrivalLane="b4[0]_0" arrivalPos="131.31" arrivalSpeed="12.26" duration="347.00" routeLength="2943.26" waitingTime="53.00" waitingCount="4" stopTime="0.00" timeLoss="109.09" rerouteNo="0" devices="vehroute_66 tripinfo_66 fcd_66" vType="DEFAULT_VEHTYPE" speedFactor="0.91" vaporized=""/>
    <tripinfo id="68" depart="2378.00" departLane="a210_0" departPos="5.10" departSpeed="0.00" departDelay="0.91" arrival="2643.00" arrivalLane="b4[0]_1" arrivalPos="131.31" arrivalSpeed="13.26" duration="265.00" routeLength="2930.71" waitingTime="3.00" waitingCount="2" stopTime="0.00" timeLoss="59.23" rerouteNo="0" devices="vehroute_68 tripinfo_68 fcd_68" vType="DEFAULT_VEHTYPE" speedFactor="1.04" vaporized=""/>