<?xml version="1.0" encoding="UTF-8"?>

<!-- generated on 2025-03-21 18:07:21 by Eclipse SUMO sumo Version 1.21.0
<sumoConfiguration xmlns:xsi="http://www.w3.org/2001/XMLSchema-instance" xsi:noNamespaceSchemaLocation="http://sumo.dlr.de/xsd/sumoConfiguration.xsd">

    <input>
        <net-file value="${STATICPATH}/joined_lanes.net.xml"/>
        <route-files value="${SIMULATIONPATH}/generatedRoutes.rou.xml"/>
        <additional-files value="${STATICPATH}/detectors.add.xml,${STATICPATH}/joined_vtypes.add.xml,${STATICPATH}/joined_tls.add.xml"/>
    </input>

    <output>
        <fcd-output value="${SIMULATIONPATH}/fcd.xml"/>
        <queue-output value="${SIMULATIONPATH}/queue.xml"/>
        <summary-output value="${SIMULATIONPATH}/summary.xml"/>
        <tripinfo-output value="${SIMULATIONPATH}/tripinfos.xml"/>
        <vehroute-output value="${SIMULATIONPATH}/vehroute.xml"/>
        <save-state.prefix value="configs\state"/>
    </output>

    <processing>
        <ignore-junction-blocker value="1"/>
        <ignore-route-errors value="true"/>
        <time-to-teleport value="-1"/>
    </processing>

    <report>
        <log value="C:/Users/fabio/Desktop/sumo_log.txt"/>
        <no-step-log value="true"/>
    </report>

    <emissions>
        <phemlight-path value="configs\./PHEMlight/"/>
    </emissions>

    <traci_server>
        <remote-port value="60306"/>
    </traci_server>

</sumoConfiguration>
-->

<routes xmlns:xsi="http://www.w3.org/2001/XMLSchema-instance" xsi:noNamespaceSchemaLocation="http://sumo.dlr.de/xsd/routes_file.xsd">
    <vehicle id="3" depart="70.00" arrival="407.00">
        <route edges="a210 a43[0] a43[1] a201 a201c a204a[0] a124 b12 b56[0] b56[1][0] b56[1][1] b5[1][0]+66 b5[1][1][1] b8 b10"/>
    </vehicle>

    <vehicle id="0" depart="40.00" arrival="411.00">
        <route edges="a210 a43[0] a43[1] a115 a110 a185 a92 a90 am91 a88 a187 a191 a17 a71 b38[0] b38[0]a b37 b26 b26.-170 b15 b13[1] b4[0]"/>
    </vehicle>

    <vehicle id="1" depart="44.00" arrival="412.00">
        <route edges="a210 a43[0] a43[1] a201 a201c a204a[0] a124 b12 b56[0] b56[1][0] b56[1][1] b5[1][0]+66 b5[1][1][1] b8 b10"/>
    </vehicle>

    <vehicle id="5" depart="139.00" arrival="416.00">
        <route edges="a210 a43[0] a43[1] a201 a201c a204a[0] a124 b12 b56[0] b56[1][0] b56[1][1] b5[1][0]+66 b5[1][1][1] b8 b10"/>
    </vehicle>

    <vehicle id="2" depart="47.00" arrival="417.00">
        <route edges="a210 a43[0] a43[1] a115 a110 a185 a92 a90 am91 a88 a187 a191 a17 a71 b38[0] b38[0]a b37 b26 b26.-170 b15 b13[1] b4[0]"/>
    </vehicle>

    <vehicle id="4" depart="76.00" arrival="419.00">
        <route edges="a210 a43[0] a43[1] a115 a110 a185 a92 a90 am91 a88 a187 a191 a17 a71 b38[0] b38[0]a b37 b26 b26.-170 b15 b13[1] b4[0]"/>
    </vehicle>

    <vehicle id="6" depart="151.00" arrival="422.00">
        <route edges="a210 a43[0] a43[1] a115 a110 a185 a92 a90 am91 a88 a187 a191 a17 a71 b38[0] b38[0]a b37 b26 b26.-170 b15 b13[1] b4[0]"/>
    </vehicle>

    <vehicle id="7" depart="225.00" arrival="549.00">
        <route edges="a210 a43[0] a43[1] a115 a110 a185 a92 a90 am91 a88 a187 a191 a17 a71 b38[0] b38[0]a b37 b26 b26.-170 b15 b13[1] b4[0]"/>
    </vehicle>

    <vehicle id="8" depart="240.00" arrival="551.00">
        <route edges="a210 a43[0] a43[1] a115 a110 a185 a92 a90 am91 a88 a187 a191 a17 a71 b38[0] b38[0]a b37 b26 b26.-170 b15 b13[1] b4[0]"/>
    </vehicle>

    <vehicle id="10" depart="260.00" arrival="551.00">
        <route edges="a210 a43[0] a43[1] a115 a110 a185 a92 a90 am91 a88 a187 a191 a17 a71 b38[0] b38[0]a b37 b26 b26.-170 b15 b13[1] b4[0]"/>
    </vehicle>

    <vehicle id="11" depart="296.00" arrival="557.00">
        <route edges="a210 a43[0] a43[1] a115 a110 a185 a92 a90 am91 a88 a187 a191 a17 a71 b38[0] b38[0]a b37 b26 b26.-170 b15 b13[1] b4[0]"/>
    </vehicle>

    <vehicle id="9" depart="257.00" arrival="558.00">
        <route edges="a210 a43[0] a43[1] a115 a110 a185 a92 a90 am91 a88 a187 a191 a17 a71 b38[0] b38[0]a b37 b26 b26.-170 b15 b13[1] b4[0]"/>
    </vehicle>

    <vehicle id="12" depart="306.00" arrival="660.00">
        <route edges="a210 a43[0] a43[1] a115 a110 a185 a92 a90 am91 a88 a187 a191 a17 a71 b38[0] b38[0]a b37 b26 b26.-170 b15 b13[1] b4[0]"/>
    </vehicle>

    <vehicle id="13" depart="354.00" arrival="661.00">
        <route edges="a210 a43[0] a43[1] a115 a110 a185 a92 a90 am91 a88 a187 a191 a17 a71 b38[0] b38[0]a b37 b26 b26.-170 b15 b13[1] b4[0]"/>
    </vehicle>

    <vehicle id="14" depart="357.00" arrival="786.00">
        <route edges="a210 a43[0] a43[1] a115 a110 a185 a92 a90 am91 a88 a187 a191 a17 a71 b38[0] b38[0]a b37 b26 b26.-170 b15 b13[1] b4[0]"/>
    </vehicle>

    <vehicle id="15" depart="364.00" arrival="792.00">
        <route edges="a210 a43[0] a43[1] a115 a110 a185 a92 a90 am91 a88 a187 a191 a17 a71 b38[0] b38[0]a b37 b26 b26.-170 b15 b13[1] b4[0]"/>
    </vehicle>

    <vehicle id="16" depart="396.00" arrival="795.00">
        <route edges="a210 a43[0] a43[1] a115 a110 a185 a92 a90 am91 a88 a187 a191 a17 a71 b38[0] b38[0]a b37 b26 b26.-170 b15 b13[1] b4[0]"/>
    </vehicle>

    <vehicle id="17" depart="437.00" arrival="797.00">
        <route edges="a210 a43[0] a43[1] a115 a110 a185 a92 a90 am91 a88 a187 a191 a17 a71 b38[0] b38[0]a b37 b26 b26.-170 b15 b13[1] b4[0]"/>
    </vehicle>

    <vehicle id="19" depart="494.00" arrival="799.00">
        <route edges="a210 a43[0] a43[1] a115 a110 a185 a92 a90 am91 a88 a187 a191 a17 a71 b38[0] b38[0]a b37 b26 b26.-170 b15 b13[1] b4[0]"/>
    </vehicle>

    <vehicle id="18" depart="471.00" arrival="800.00">
        <route edges="a210 a43[0] a43[1] a115 a110 a185 a92 a90 am91 a88 a187 a191 a17 a71 b38[0] b38[0]a b37 b26 b26.-170 b15 b13[1] b4[0]"/>
    </vehicle>

    <vehicle id="20" depart="541.00" arrival="906.00">
        <route edges="a210 a43[0] a43[1] a115 a110 a185 a92 a90 am91 a88 a187 a191 a17 a71 b38[0] b38[0]a b37 b26 b26.-170 b15 b13[1] b4[0]"/>
    </vehicle>

    <vehicle id="21" depart="544.00" arrival="909.00">
        <route edges="a210 a43[0] a43[1] a115 a110 a185 a92 a90 am91 a88 a187 a191 a17 a71 b38[0] b38[0]a b37 b26 b26.-170 b15 b13[1] b4[0]"/>
    </vehicle>

    <vehicle id="22" depart="627.00" arrival="914.00">
        <route edges="a210 a43[0] a43[1] a115 a110 a185 a92 a90 am91 a88 a187 a191 a17 a71 b38[0] b38[0]a b37 b26 b26.-170 b15 b13[1] b4[0]"/>
    </vehicle>

    <vehicle id="23" depart="667.00" arrival="1042.00">
        <route edges="a210 a43[0] a43[1] a115 a110 a185 a92 a90 am91 a88 a187 a191 a17 a71 b38[0] b38[0]a b37 b26 b26.-170 b15 b13[1] b4[0]"/>
    </vehicle>

    <vehicle id="24" depart="701.00" arrival="1046.00">
        <route edges="a210 a43[0] a43[1] a115 a110 a185 a92 a90 am91 a88 a187 a191 a17 a71 b38[0] b38[0]a b37 b26 b26.-170 b15 b13[1] b4[0]"/>
    </vehicle>

    <vehicle id="25" depart="741.00" arrival="1048.00">
        <route edges="a210 a43[0] a43[1] a115 a110 a185 a92 a90 am91 a88 a187 a191 a17 a71 b38[0] b38[0]a b37 b26 b26.-170 b15 b13[1] b4[0]"/>
    </vehicle>

    <vehicle id="26" depart="775.00" arrival="1050.00">
        <route edges="a210 a43[0] a43[1] a115 a110 a185 a92 a90 am91 a88 a187 a191 a17 a71 b38[0] b38[0]a b37 b26 b26.-170 b15 b13[1] b4[0]"/>
    </vehicle>

    <vehicle id="28" depart="917.00" arrival="1158.00">
        <route edges="a210 a43[0] a43[1] a115 a110 a185 a92 a90 am91 a88 a187 a191 a17 a71 b38[0] b38[0]a b37 b26 b26.-170 b15 b13[1] b4[0]"/>
    </vehicle>

    <vehicle id="27" depart="869.00" arrival="1159.00">
        <route edges="a210 a43[0] a43[1] a115 a110 a185 a92 a90 am91 a88 a187 a191 a17 a71 b38[0] b38[0]a b37 b26 b26.-170 b15 b13[1] b4[0]"/>
    </vehicle>

    <vehicle id="30" depart="955.00" arrival="1281.00">
        <route edges="a210 a43[0] a43[1] a115 a110 a185 a92 a90 am91 a88 a187 a191 a17 a71 b38[0] b38[0]a b37 b26 b26.-170 b15 b13[1] b4[0]"/>
    </vehicle>

    <vehicle id="29" depart="936.00" arrival="1283.00">
        <route edges="a210 a43[0] a43[1] a115 a110 a185 a92 a90 am91 a88 a187 a191 a17 a71 b38[0] b38[0]a b37 b26 b26.-170 b15 b13[1] b4[0]"/>
    </vehicle>

    <vehicle id="31" depart="1064.00" arrival="1395.00">
        <route edges="a210 a43[0] a43[1] a201 a201c a204a[0] a124 b12 b56[0] b56[1][0] b56[1][1] b5[1][0]+66 b5[1][1][1] b8 b10"/>
    </vehicle>

    <vehicle id="33" depart="1103.00" arrival="1398.00">
        <route edges="a210 a43[0] a43[1] a115 a110 a185 a92 a90 am91 a88 a187 a191 a17 a71 b38[0] b38[0]a b37 b26 b26.-170 b15 b13[1] b4[0]"/>
    </vehicle>

    <vehicle id="32" depart="1068.00" arrival="1399.00">
        <route edges="a210 a43[0] a43[1] a115 a110 a185 a92 a90 am91 a88 a187 a191 a17 a71 b38[0] b38[0]a b37 b26 b26.-170 b15 b13[1] b4[0]"/>
    </vehicle>

    <vehicle id="34" depart="1136.00" arrival="1405.00">
        <route edges="a210 a43[0] a43[1] a115 a110 a185 a92 a90 am91 a88 a187 a191 a17 a71 b38[0] b38[0]a b37 b26 b26.-170 b15 b13[1] b4[0]"/>
    </vehicle>

    <vehicle id="35" depart="1169.00" arrival="1430.00">
        <route edges="a210 a43[0] a43[1] a201 a201c a204a[0] a124 b12 b56[0] b56[1][0] b56[1][1] b5[1][0]+66 b5[1][1][1] b8 b10"/>
    </vehicle>

    <vehicle id="37" depart="1272.00" arrival="1524.00">
        <route edges="a210 a43[0] a43[1] a115 a110 a185 a92 a90 am91 a88 a187 a191 a17 a71 b38[0] b38[0]a b37 b26 b26.-170 b15 b13[1] b4[0]"/>
    </vehicle>

    <vehicle id="36" depart="1259.00" arrival="1526.00">
        <route edges="a210 a43[0] a43[1] a115 a110 a185 a92 a90 am91 a88 a187 a191 a17 a71 b38[0] b38[0]a b37 b26 b26.-170 b15 b13[1] b4[0]"/>
    </vehicle>

    <vehicle id="38" depart="1324.00" arrival="1640.00">
        <route edges="a210 a43[0] a43[1] a115 a110 a185 a92 a90 am91 a88 a187 a191 a17 a71 b38[0] b38[0]a b37 b26 b26.-170 b15 b13[1] b4[0]"/>
    </vehicle>

    <vehicle id="39" depart="1354.00" arrival="1651.00">
        <route edges="a210 a43[0] a43[1] a115 a110 a185 a92 a90 am91 a88 a187 a191 a17 a71 b38[0] b38[0]a b37 b26 b26.-170 b15 b13[1] b4[0]"/>
    </vehicle>

    <vehicle id="40" depart="1375.00" arrival="1652.00">
        <route edges="a210 a43[0] a43[1] a115 a110 a185 a92 a90 am91 a88 a187 a191 a17 a71 b38[0] b38[0]a b37 b26 b26.-170 b15 b13[1] b4[0]"/>
    </vehicle>

    <vehicle id="41" depart="1421.00" arrival="1773.00">
        <route edges="a210 a43[0] a43[1] a115 a110 a185 a92 a90 am91 a88 a187 a191 a17 a71 b38[0] b38[0]a b37 b26 b26.-170 b15 b13[1] b4[0]"/>
    </vehicle>

    <vehicle id="42" depart="1491.00" arrival="1775.00">
        <route edges="a210 a43[0] a43[1] a115 a110 a185 a92 a90 am91 a88 a187 a191 a17 a71 b38[0] b38[0]a b37 b26 b26.-170 b15 b13[1] b4[0]"/>
    </vehicle>

    <vehicle id="43" depart="1499.00" arrival="1776.00">
        <route edges="a210 a43[0] a43[1] a115 a110 a185 a92 a90 am91 a88 a187 a191 a17 a71 b38[0] b38[0]a b37 b26 b26.-170 b15 b13[1] b4[0]"/>
    </vehicle>

    <vehicle id="44" depart="1534.00" arrival="1890.00">
        <route edges="a210 a43[0] a43[1] a115 a110 a185 a92 a90 am91 a88 a187 a191 a17 a71 b38[0] b38[0]a b37 b26 b26.-170 b15 b13[1] b4[0]"/>
    </vehicle>

    <vehicle id="45" depart="1576.00" arrival="1892.00">
        <route edges="a210 a43[0] a43[1] a115 a110 a185 a92 a90 am91 a88 a187 a191 a17 a71 b38[0] b38[0]a b37 b26 b26.-170 b15 b13[1] b4[0]"/>
    </vehicle>

    <vehicle id="46" depart="1620.00" arrival="1896.00">
        <route edges="a210 a43[0] a43[1] a115 a110 a185 a92 a90 am91 a88 a187 a191 a17 a71 b38[0] b38[0]a b37 b26 b26.-170 b15 b13[1] b4[0]"/>
    </vehicle>

    <vehicle id="47" depart="1636.00" arrival="1907.00">
        <route edges="a210 a43[0] a43[1] a115 a110 a185 a92 a90 am91 a88 a187 a191 a17 a71 b38[0] b38[0]a b37 b26 b26.-170 b15 b13[1] b4[0]"/>
    </vehicle>

    <vehicle id="48" depart="1655.00" arrival="2026.00">
        <route edges="a210 a43[0] a43[1] a115 a110 a185 a92 a90 am91 a88 a187 a191 a17 a71 b38[0] b38[0]a b37 b26 b26.-170 b15 b13[1] b4[0]"/>
    </vehicle>

    <vehicle id="49" depart="1662.00" arrival="2030.00">
        <route edges="a210 a43[0] a43[1] a115 a110 a185 a92 a90 am91 a88 a187 a191 a17 a71 b38[0] b38[0]a b37 b26 b26.-170 b15 b13[1] b4[0]"/>
    </vehicle>

    <vehicle id="51" depart="1733.00" arrival="2031.00">
        <route edges="a210 a43[0] a43[1] a115 a110 a185 a92 a90 am91 a88 a187 a191 a17 a71 b38[0] b38[0]a b37 b26 b26.-170 b15 b13[1] b4[0]"/>
    </vehicle>

    <vehicle id="50" depart="1714.00" arrival="2033.00">
        <route edges="a210 a43[0] a43[1] a115 a110 a185 a92 a90 am91 a88 a187 a191 a17 a71 b38[0] b38[0]a b37 b26 b26.-170 b15 b13[1] b4[0]"/>
    </vehicle>

    <vehicle id="52" depart="1757.00" arrival="2136.00">
        <route edges="a210 a43[0] a43[1] a115 a110 a185 a92 a90 am91 a88 a187 a191 a17 a71 b38[0] b38[0]a b37 b26 b26.-170 b15 b13[1] b4[0]"/>
    </vehicle>

    <vehicle id="53" depart="1760.00" arrival="2138.00">
        <route edges="a210 a43[0] a43[1] a115 a110 a185 a92 a90 am91 a88 a187 a191 a17 a71 b38[0] b38[0]a b37 b26 b26.-170 b15 b13[1] b4[0]"/>
    </vehicle>

    <vehicle id="54" depart="1834.00" arrival="2261.00">
        <route edges="a210 a43[0] a43[1] a115 a110 a185 a92 a90 am91 a88 a187 a191 a17 a71 b38[0] b38[0]a b37 b26 b26.-170 b15 b13[1] b4[0]"/>
    </vehicle>

    <vehicle id="55" depart="1844.00" arrival="2264.00">
        <route edges="a210 a43[0] a43[1] a115 a110 a185 a92 a90 am91 a88 a187 a191 a17 a71 b38[0] b38[0]a b37 b26 b26.-170 b15 b13[1] b4[0]"/>
    </vehicle>

    <vehicle id="56" depart="1867.00" arrival="2270.00">
        <route edges="a210 a43[0] a43[1] a115 a110 a185 a92 a90 am91 a88 a187 a191 a17 a71 b38[0] b38[0]a b37 b26 b26.-170 b15 b13[1] b4[0]"/>
    </vehicle>

    <vehicle id="57" depart="1898.00" arrival="2272.00">
        <route edges="a210 a43[0] a43[1] a115 a110 a185 a92 a90 am91 a88 a187 a191 a17 a71 b38[0] b38[0]a b37 b26 b26.-170 b15 b13[1] b4[0]"/>
    </vehicle>

    <vehicle id="58" depart="1928.00" arrival="2272.00">
        <route edges="a210 a43[0] a43[1] a115 a110 a185 a92 a90 am91 a88 a187 a191 a17 a71 b38[0] b38[0]a b37 b26 b26.-170 b15 b13[1] b4[0]"/>
    </vehicle>

    <vehicle id="59" depart="1973.00" arrival="2277.00">
        <route edges="a210 a43[0] a43[1] a115 a110 a185 a92 a90 am91 a88 a187 a191 a17 a71 b38[0] b38[0]a b37 b26 b26.-170 b15 b13[1] b4[0]"/>
    </vehicle>

    <vehicle id="60" depart="2211.00" arrival="2501.00">
        <route edges="a210 a43[0] a43[1] a115 a110 a185 a92 a90 am91 a88 a187 a191 a17 a71 b38[0] b38[0]a b37 b26 b26.-170 b15 b13[1] b4[0]"/>
    </vehicle>

    <vehicle id="61" depart="2215.00" arrival="2504.00">
        <route edges="a210 a43[0] a43[1] a115 a110 a185 a92 a90 am91 a88 a187 a191 a17 a71 b38[0] b38[0]a b37 b26 b26.-170 b15 b13[1] b4[0]"/>
    </vehicle>

    <vehicle id="63" depart="2247.00" arrival="2510.00">
        <route edges="a210 a43[0] a43[1] a115 a110 a185 a92 a90 am91 a88 a187 a191 a17 a71 b38[0] b38[0]a b37 b26 b26.-170 b15 b13[1] b4[0]"/>
    </vehicle>

    <vehicle id="64" depart="2250.00" arrival="2513.00">
        <route edges="a210 a43[0] a43[1] a115 a110 a185 a92 a90 am91 a88 a187 a191 a17 a71 b38[0] b38[0]a b37 b26 b26.-170 b15 b13[1] b4[0]"/>
    </vehicle>

    <vehicle id="62" depart="2218.00" arrival="2578.00">
        <route edges="a210 a43[0] a43[1] a201 a201c a204a[0] a124 b12 b56[0] b56[1][0] b56[1][1] b5[1][0]+66 b5[1][1][1] b8 b10"/>
    </vehicle>

    <vehicle id="65" depart="2293.00" arrival="2640.00">
        <route edges="a210 a43[0] a43[1] a115 a110 a185 a92 a90 am91 a88 a187 a191 a17 a71 b38[0] b38[0]a b37 b26 b26.-170 b15 b13[1] b4[0]"/>
    </vehicle>

    <vehicle id="66" depart="2296.00" arrival="2643.00">
        <route edges="a210 a43[0] a43[1] a115 a110 a185 a92 a90 am91 a88 a187 a191 a17 a71 b38[0] b38[0]a b37 b26 b26.-170 b15 b13[1] b4[0]"/>
    </vehicle>

    <vehicle id="68" depart="2378.00" arrival="2643.00">
        <route edges="a210 a43[0] a43[1] a115 a110 a185 a92 a90 am91 a88 a187 a191 a17 a71 b38[0] b38[0]a b37 b26 b26.-170 b15 b13[1] b4[0]"/>
    </vehicle>

    <vehicle id="69" depart="2381.00" arrival="2725.00">
        <route edges="a210 a43[0] a43[1] a201 a201c a204a[0] a124 b12 b56[0] b56[1][0] b56[1][1] b5[1][0]+66 b5[1][1][1] b8 b10"/>
    </vehicle>

    <vehicle id="70" depart="2449.00" arrival="2726.00">
        <route edges="a210 a43[0] a43[1] a201 a201c a204a[0] a124 b12 b56[0] b56[1][0] b56[1][1] b5[1][0]+66 b5[1][1][1] b8 b10"/>
    </vehicle>

    <vehicle id="71" depart="2478.00" arrival="2729.00">
        <route edges="a210 a43[0] a43[1] a201 a201c a204a[0] a124 b12 b56[0] b56[1][0] b56[1][1] b5[1][0]+66 b5[1][1][1] b8 b10"/>
    </vehicle>

    <vehicle id="67" depart="2374.00" arrival="2732.00">
        <route edges="a210 a43[0] a43[1] a201 a201c a204a[0] a124 b12 b56[0] b56[1][0] b56[1][1] b5[1][0]+66 b5[1][1][1] b8 b10"/>
    </vehicle>

    <vehicle id="72" depart="2492.00" arrival="2882.00">
        <route edges="a210 a43[0] a43[1] a115 a110 a185 a92 a90 am91 a88 a187 a191 a17 a71 b38[0] b38[0]a b37 b26 b26.-170 b15 b13[1] b4[0]"/>
    </vehicle>

    <vehicle id="73" depart="2579.00" arrival="2882.00">
        <route edges="a210 a43[0] a43[1] a115 a110 a185 a92 a90 am91 a88 a187 a191 a17 a71 b38[0] b38[0]a b37 b26 b26.-170 b15 b13[1] b4[0]"/>
    </vehicle>

    <vehicle id="74" depart="2642.00" arrival="3002.00">
        <route edges="a210 a43[0] a43[1] a115 a110 a185 a92 a90 am91 a88 a187 a191 a17 a71 b38[0] b38[0]a b37 b26 b26.-170 b15 b13[1] b4[0]"/>
    </vehicle>

    <vehicle id="75" depart="2655.00" arrival="3005.00">
        <route edges="a210 a43[0] a43[1] a115 a110 a185 a92 a90 am91 a88 a187 a191 a17 a71 b38[0] b38[0]a b37 b26 b26.-170 b15 b13[1] b4[0]"/>
    </vehicle>

    <vehicle id="76" depart="2658.00" arrival="3008.00">
        <route edges="a210 a43[0] a43[1] a115 a110 a185 a92 a90 am91 a88 a187 a191 a17 a71 b38[0] b38[0]a b37 b26 b26.-170 b15 b13[1] b4[0]"/>
    </vehicle>

    <vehicle id="77" depart="2661.00" arrival="3011.00">
        <route edges="a210 a43[0] a43[1] a115 a110 a185 a92 a90 am91 a88 a187 a191 a17 a71 b38[0] b38[0]a b37 b26 b26.-170 b15 b13[1] b4[0]"/>
    </vehicle>

    <vehicle id="78" depart="2738.00" arrival="3012.00">
        <route edges="a210 a43[0] a43[1] a115 a110 a185 a92 a90 am91 a88 a187 a191 a17 a71 b38[0] b38[0]a b37 b26 b26.-170 b15 b13[1] b4[0]"/>
    </vehicle>

    <vehicle id="79" depart="2752.00" arrival="3014.00">
        <route edges="a210 a43[0] a43[1] a115 a110 a185 a92 a90 am91 a88 a187 a191 a17 a71 b38[0] b38[0]a b37 b26 b26.-170 b15 b13[1] b4[0]"/>
    </vehicle>

    <vehicle id="80" depart="2770.00" arrival="3120.00">
        <route edges="a210 a43[0] a43[1] a115 a110 a185 a92 a90 am91 a88 a187 a191 a17 a71 b38[0] b38[0]a b37 b26 b26.-170 b15 b13[1] b4[0]"/>
    </vehicle>

    <vehicle id="81" depart="2773.00" arrival="3125.00">
        <route edges="a210 a43[0] a43[1] a115 a110 a185 a92 a90 am91 a88 a187 a191 a17 a71 b38[0] b38[0]a b37 b26 b26.-170 b15 b13[1] b4[0]"/>
    </vehicle>

    <vehicle id="82" depart="2789.00" arrival="3125.00">
        <route edges="a210 a43[0] a43[1] a115 a110 a185 a92 a90 am91 a88 a187 a191 a17 a71 b38[0] b38[0]a b37 b26 b26.-170 b15 b13[1] b4[0]"/>
    </vehicle>

    <vehicle id="84" depart="2833.00" arrival="3129.00">
        <route edges="a210 a43[0] a43[1] a115 a110 a185 a92 a90 am91 a88 a187 a191 a17 a71 b38[0] b38[0]a b37 b26 b26.-170 b15 b13[1] b4[0]"/>
    </vehicle>

    <vehicle id="83" depart="2827.00" arrival="3130.00">
        <route edges="a210 a43[0] a43[1] a115 a110 a185 a92 a90 am91 a88 a187 a191 a17 a71 b38[0] b38[0]a b37 b26 b26.-170 b15 b13[1] b4[0]"/>
    </vehicle>

    <vehicle id="85" depart="2886.00" arrival="3248.00">
        <route edges="a210 a43[0] a43[1] a115 a110 a185 a92 a90 am91 a88 a187 a191 a17 a71 b38[0] b38[0]a b37 b26 b26.-170 b15 b13[1] b4[0]"/>
    </vehicle>

    <vehicle id="86" depart="2931.00" arrival="3251.00">
        <route edges="a210 a43[0] a43[1] a115 a110 a185 a92 a90 am91 a88 a187 a191 a17 a71 b38[0] b38[0]a b37 b26 b26.-170 b15 b13[1] b4[0]"/>
    </vehicle>

    <vehicle id="87" depart="2980.00" arrival="3251.00">
        <route edges="a210 a43[0] a43[1] a115 a110 a185 a92 a90 am91 a88 a187 a191 a17 a71 b38[0] b38[0]a b37 b26 b26.-170 b15 b13[1] b4[0]"/>
    </vehicle>

    <vehicle id="88" depart="3028.00" arrival="3367.00">
        <route edges="a210 a43[0] a43[1] a115 a110 a185 a92 a90 am91 a88 a187 a191 a17 a71 b38[0] b38[0]a b37 b26 b26.-170 b15 b13[1] b4[0]"/>
    </vehicle>

    <vehicle id="89" depart="3040.00" arrival="3370.00">
        <route edges="a210 a43[0] a43[1] a115 a110 a185 a92 a90 am91 a88 a187 a191 a17 a71 b38[0] b38[0]a b37 b26 b26.-170 b15 b13[1] b4[0]"/>
    </vehicle>

    <vehicle id="90" depart="3192.00" arrival="3490.00">
        <route edges="a210 a43[0] a43[1] a115 a110 a185 a92 a90 am91 a88 a187 a191 a17 a71 b38[0] b38[0]a b37 b26 b26.-170 b15 b13[1] b4[0]"/>
    </vehicle>

    <vehicle id="91" depart="3212.00" arrival="3623.00">
        <route edges="a210 a43[0] a43[1] a115 a110 a185 a92 a90 am91 a88 a187 a191 a17 a71 b38[0] b38[0]a b37 b26 b26.-170 b15 b13[1] b4[0]"/>
    </vehicle>

    <vehicle id="92" depart="3223.00" arrival="3628.00">
        <route edges="a210 a43[0] a43[1] a115 a110 a185 a92 a90 am91 a88 a187 a191 a17 a71 b38[0] b38[0]a b37 b26 b26.-170 b15 b13[1] b4[0]"/>
    </vehicle>

    <vehicle id="93" depart="3247.00" arrival="3629.00">
        <route edges="a210 a43[0] a43[1] a115 a110 a185 a92 a90 am91 a88 a187 a191 a17 a71 b38[0] b38[0]a b37 b26 b26.-170 b15 b13[1] b4[0]"/>
    </vehicle>

    <vehicle id="94" depart="3440.00" arrival="3732.00">
        <route edges="a210 a43[0] a43[1] a115 a110 a185 a92 a90 am91 a88 a187 a191 a17 a71 b38[0] b38[0]a b37 b26 b26.-170 b15 b13[1] b4[0]"/>
    </vehicle>

    <vehicle id="95" depart="3444.00" arrival="3735.00">
        <route edges="a210 a43[0] a43[1] a115 a110 a185 a92 a90 am91 a88 a187 a191 a17 a71 b38[0] b38[0]a b37 b26 b26.-170 b15 b13[1] b4[0]"/>
    </vehicle>

    <vehicle id="96" depart="3455.00" arrival="3754.00">
        <route edges="a210 a43[0] a43[1] a201 a201c a204a[0] a124 b12 b56[0] b56[1][0] b56[1][1] b5[1][0]+66 b5[1][1][1] b8 b10"/>
    </vehicle>

    <vehicle id="97" depart="3485.00" arrival="3868.00">
        <route edges="a210 a43[0] a43[1] a115 a110 a185 a92 a90 am91 a88 a187 a191 a17 a71 b38[0] b38[0]a b37 b26 b26.-170 b15 b13[1] b4[0]"/>
    </vehicle>

    <vehicle id="99" depart="3589.00" arrival="3869.00">
        <route edges="a210 a43[0] a43[1] a115 a110 a185 a92 a90 am91 a88 a187 a191 a17 a71 b38[0] b38[0]a b37 b26 b26.-170 b15 b13[1] b4[0]"/>
    </vehicle>

    <vehicle id="98" depart="3514.00" arrival="3870.00">
        <route edges="a210 a43[0] a43[1] a115 a110 a185 a92 a90 am91 a88 a187 a191 a17 a71 b38[0] b38[0]a b37 b26 b26.-170 b15 b13[1] b4[0]"/>
    </vehicle>

</routes>
